# vtk DataFile Version 3.0
#This file was generated by the deal.II library on 2014/11/24 at 23:16:20
ASCII
DATASET UNSTRUCTURED_GRID

POINTS 3040 double
15 15 0
11.25 15 0
11.4268 11.4268 0
8.57099 11.4473 0
11.25 15 0
7.5 15 0
8.57099 11.4473 0
5.71521 11.4678 0
11.4268 11.4268 0
8.57099 11.4473 0
7.85355 7.85355 0
5.89199 7.89456 0
8.57099 11.4473 0
5.71521 11.4678 0
5.89199 7.89456 0
3.93042 7.93557 0
7.5 15 0
3.75 15 0
5.71521 11.4678 0
2.8576 11.4839 0
3.75 15 0
0 15 0
2.8576 11.4839 0
0 11.5 0
5.71521 11.4678 0
2.8576 11.4839 0
3.93042 7.93557 0
1.96521 7.96778 0
2.8576 11.4839 0
0 11.5 0
1.96521 7.96778 0
0 8 0
0 -15 0
3.75 -15 0
0 -11.5 0
2.8576 -11.4839 0
3.75 -15 0
7.5 -15 0
2.8576 -11.4839 0
5.71521 -11.4678 0
0 -11.5 0
2.8576 -11.4839 0
0 -8 0
1.96521 -7.96778 0
2.8576 -11.4839 0
5.71521 -11.4678 0
1.96521 -7.96778 0
3.93042 -7.93557 0
7.5 -15 0
11.25 -15 0
5.71521 -11.4678 0
8.57099 -11.4473 0
11.25 -15 0
15 -15 0
8.57099 -11.4473 0
11.4268 -11.4268 0
5.71521 -11.4678 0
8.57099 -11.4473 0
3.93042 -7.93557 0
5.89199 -7.89456 0
8.57099 -11.4473 0
11.4268 -11.4268 0
5.89199 -7.89456 0
7.85355 -7.85355 0
7.93557 3.93042 0
7.91506 4.9112 0
6.18265 3.04348 0
6.15572 3.80068 0
7.91506 4.9112 0
7.89456 5.89199 0
6.15572 3.80068 0
6.12879 4.55788 0
6.18265 3.04348 0
6.15572 3.80068 0
4.42972 2.15655 0
4.39637 2.69016 0
6.15572 3.80068 0
6.12879 4.55788 0
4.39637 2.69016 0
4.36302 3.22378 0
7.89456 5.89199 0
7.87406 6.87277 0
6.12879 4.55788 0
6.09786 5.31241 0
7.87406 6.87277 0
7.85355 7.85355 0
6.09786 5.31241 0
6.06694 6.06694 0
6.12879 4.55788 0
6.09786 5.31241 0
4.36302 3.22378 0
4.32167 3.75205 0
6.09786 5.31241 0
6.06694 6.06694 0
4.32167 3.75205 0
4.28033 4.28033 0
7.85355 7.85355 0
6.87277 7.87406 0
6.06694 6.06694 0
5.31241 6.09786 0
6.87277 7.87406 0
5.89199 7.89456 0
5.31241 6.09786 0
4.55788 6.12879 0
6.06694 6.06694 0
5.31241 6.09786 0
4.28033 4.28033 0
3.75205 4.32167 0
5.31241 6.09786 0
4.55788 6.12879 0
3.75205 4.32167 0
3.22378 4.36302 0
5.89199 7.89456 0
4.9112 7.91506 0
4.55788 6.12879 0
3.80068 6.15572 0
4.9112 7.91506 0
3.93042 7.93557 0
3.80068 6.15572 0
3.04348 6.18265 0
4.55788 6.12879 0
3.80068 6.15572 0
3.22378 4.36302 0
2.69016 4.39637 0
3.80068 6.15572 0
3.04348 6.18265 0
2.69016 4.39637 0
2.15655 4.42972 0
3.93042 7.93557 0
2.94781 7.95168 0
3.04348 6.18265 0
2.28273 6.20007 0
2.94781 7.95168 0
1.96521 7.96778 0
2.28273 6.20007 0
1.52198 6.2175 0
3.04348 6.18265 0
2.28273 6.20007 0
2.15655 4.42972 0
1.61765 4.44847 0
2.28273 6.20007 0
1.52198 6.2175 0
1.61765 4.44847 0
1.07874 4.46722 0
1.96521 7.96778 0
0.982604 7.98389 0
1.52198 6.2175 0
0.760988 6.23375 0
0.982604 7.98389 0
0 8 0
0.760988 6.23375 0
0 6.25 0
1.52198 6.2175 0
0.760988 6.23375 0
1.07874 4.46722 0
0.539372 4.48361 0
0.760988 6.23375 0
0 6.25 0
0.539372 4.48361 0
0 4.5 0
0 -8 0
0.982604 -7.98389 0
0 -6.25 0
0.760988 -6.23375 0
0.982604 -7.98389 0
1.96521 -7.96778 0
0.760988 -6.23375 0
1.52198 -6.2175 0
0 -6.25 0
0.760988 -6.23375 0
0 -4.5 0
0.539372 -4.48361 0
0.760988 -6.23375 0
1.52198 -6.2175 0
0.539372 -4.48361 0
1.07874 -4.46722 0
1.96521 -7.96778 0
2.94781 -7.95168 0
1.52198 -6.2175 0
2.28273 -6.20007 0
2.94781 -7.95168 0
3.93042 -7.93557 0
2.28273 -6.20007 0
3.04348 -6.18265 0
1.52198 -6.2175 0
2.28273 -6.20007 0
1.07874 -4.46722 0
1.61765 -4.44847 0
2.28273 -6.20007 0
3.04348 -6.18265 0
1.61765 -4.44847 0
2.15655 -4.42972 0
3.93042 -7.93557 0
4.9112 -7.91506 0
3.04348 -6.18265 0
3.80068 -6.15572 0
4.9112 -7.91506 0
5.89199 -7.89456 0
3.80068 -6.15572 0
4.55788 -6.12879 0
3.04348 -6.18265 0
3.80068 -6.15572 0
2.15655 -4.42972 0
2.69016 -4.39637 0
3.80068 -6.15572 0
4.55788 -6.12879 0
2.69016 -4.39637 0
3.22378 -4.36302 0
5.89199 -7.89456 0
6.87277 -7.87406 0
4.55788 -6.12879 0
5.31241 -6.09786 0
6.87277 -7.87406 0
7.85355 -7.85355 0
5.31241 -6.09786 0
6.06694 -6.06694 0
4.55788 -6.12879 0
5.31241 -6.09786 0
3.22378 -4.36302 0
3.75205 -4.32167 0
5.31241 -6.09786 0
6.06694 -6.06694 0
3.75205 -4.32167 0
4.28033 -4.28033 0
7.85355 -7.85355 0
7.87406 -6.87277 0
6.06694 -6.06694 0
6.09786 -5.31241 0
7.87406 -6.87277 0
7.89456 -5.89199 0
6.09786 -5.31241 0
6.12879 -4.55788 0
6.06694 -6.06694 0
6.09786 -5.31241 0
4.28033 -4.28033 0
4.32167 -3.75205 0
6.09786 -5.31241 0
6.12879 -4.55788 0
4.32167 -3.75205 0
4.36302 -3.22378 0
7.89456 -5.89199 0
7.91506 -4.9112 0
6.12879 -4.55788 0
6.15572 -3.80068 0
7.91506 -4.9112 0
7.93557 -3.93042 0
6.15572 -3.80068 0
6.18265 -3.04348 0
6.12879 -4.55788 0
6.15572 -3.80068 0
4.36302 -3.22378 0
4.39637 -2.69016 0
6.15572 -3.80068 0
6.18265 -3.04348 0
4.39637 -2.69016 0
4.42972 -2.15655 0
15 0 0
15 1.875 0
13.25 0 0
13.246 1.6519 0
15 1.875 0
15 3.75 0
13.246 1.6519 0
13.2419 3.3038 0
13.25 0 0
13.246 1.6519 0
11.5 0 0
11.4919 1.4288 0
13.246 1.6519 0
13.2419 3.3038 0
11.4919 1.4288 0
11.4839 2.8576 0
15 3.75 0
15 5.625 0
13.2419 3.3038 0
13.2379 4.9557 0
15 5.625 0
15 7.5 0
13.2379 4.9557 0
13.2339 6.6076 0
13.2419 3.3038 0
13.2379 4.9557 0
11.4839 2.8576 0
11.4758 4.28641 0
13.2379 4.9557 0
13.2339 6.6076 0
11.4758 4.28641 0
11.4678 5.71521 0
11.5 0 0
11.4919 1.4288 0
9.75 0 0
9.73792 1.2057 0
11.4919 1.4288 0
11.4839 2.8576 0
9.73792 1.2057 0
9.72584 2.41141 0
9.75 0 0
9.73792 1.2057 0
8 0 0
7.98389 0.982604 0
9.73792 1.2057 0
9.72584 2.41141 0
7.98389 0.982604 0
7.96778 1.96521 0
11.4839 2.8576 0
11.4758 4.28641 0
9.72584 2.41141 0
9.71376 3.61711 0
11.4758 4.28641 0
11.4678 5.71521 0
9.71376 3.61711 0
9.70168 4.82281 0
9.72584 2.41141 0
9.71376 3.61711 0
7.96778 1.96521 0
7.95168 2.94781 0
9.71376 3.61711 0
9.70168 4.82281 0
7.95168 2.94781 0
7.93557 3.93042 0
15 7.5 0
15 9.375 0
13.2339 6.6076 0
13.2288 8.25905 0
15 9.375 0
15 11.25 0
13.2288 8.25905 0
13.2236 9.9105 0
13.2339 6.6076 0
13.2288 8.25905 0
11.4678 5.71521 0
11.4575 7.1431 0
13.2288 8.25905 0
13.2236 9.9105 0
11.4575 7.1431 0
11.4473 8.57099 0
15 11.25 0
15 13.125 0
13.2236 9.9105 0
13.2185 11.5619 0
15 13.125 0
15 15 0
13.2185 11.5619 0
13.2134 13.2134 0
13.2236 9.9105 0
13.2185 11.5619 0
11.4473 8.57099 0
11.437 9.99888 0
13.2185 11.5619 0
13.2134 13.2134 0
11.437 9.99888 0
11.4268 11.4268 0
11.4678 5.71521 0
11.4575 7.1431 0
9.70168 4.82281 0
9.6863 6.02715 0
11.4575 7.1431 0
11.4473 8.57099 0
9.6863 6.02715 0
9.67092 7.23149 0
9.70168 4.82281 0
9.6863 6.02715 0
7.93557 3.93042 0
7.91506 4.9112 0
9.6863 6.02715 0
9.67092 7.23149 0
7.91506 4.9112 0
7.89456 5.89199 0
11.4473 8.57099 0
11.437 9.99888 0
9.67092 7.23149 0
9.65554 8.43583 0
11.437 9.99888 0
11.4268 11.4268 0
9.65554 8.43583 0
9.64017 9.64017 0
9.67092 7.23149 0
9.65554 8.43583 0
7.89456 5.89199 0
7.87406 6.87277 0
9.65554 8.43583 0
9.64017 9.64017 0
7.87406 6.87277 0
7.85355 7.85355 0
15 -15 0
15 -13.125 0
13.2134 -13.2134 0
13.2185 -11.5619 0
15 -13.125 0
15 -11.25 0
13.2185 -11.5619 0
13.2236 -9.9105 0
13.2134 -13.2134 0
13.2185 -11.5619 0
11.4268 -11.4268 0
11.437 -9.99888 0
13.2185 -11.5619 0
13.2236 -9.9105 0
11.437 -9.99888 0
11.4473 -8.57099 0
15 -11.25 0
15 -9.375 0
13.2236 -9.9105 0
13.2288 -8.25905 0
15 -9.375 0
15 -7.5 0
13.2288 -8.25905 0
13.2339 -6.6076 0
13.2236 -9.9105 0
13.2288 -8.25905 0
11.4473 -8.57099 0
11.4575 -7.1431 0
13.2288 -8.25905 0
13.2339 -6.6076 0
11.4575 -7.1431 0
11.4678 -5.71521 0
11.4268 -11.4268 0
11.437 -9.99888 0
9.64017 -9.64017 0
9.65554 -8.43583 0
11.437 -9.99888 0
11.4473 -8.57099 0
9.65554 -8.43583 0
9.67092 -7.23149 0
9.64017 -9.64017 0
9.65554 -8.43583 0
7.85355 -7.85355 0
7.87406 -6.87277 0
9.65554 -8.43583 0
9.67092 -7.23149 0
7.87406 -6.87277 0
7.89456 -5.89199 0
11.4473 -8.57099 0
11.4575 -7.1431 0
9.67092 -7.23149 0
9.6863 -6.02715 0
11.4575 -7.1431 0
11.4678 -5.71521 0
9.6863 -6.02715 0
9.70168 -4.82281 0
9.67092 -7.23149 0
9.6863 -6.02715 0
7.89456 -5.89199 0
7.91506 -4.9112 0
9.6863 -6.02715 0
9.70168 -4.82281 0
7.91506 -4.9112 0
7.93557 -3.93042 0
15 -7.5 0
15 -5.625 0
13.2339 -6.6076 0
13.2379 -4.9557 0
15 -5.625 0
15 -3.75 0
13.2379 -4.9557 0
13.2419 -3.3038 0
13.2339 -6.6076 0
13.2379 -4.9557 0
11.4678 -5.71521 0
11.4758 -4.28641 0
13.2379 -4.9557 0
13.2419 -3.3038 0
11.4758 -4.28641 0
11.4839 -2.8576 0
15 -3.75 0
15 -1.875 0
13.2419 -3.3038 0
13.246 -1.6519 0
15 -1.875 0
15 0 0
13.246 -1.6519 0
13.25 0 0
13.2419 -3.3038 0
13.246 -1.6519 0
11.4839 -2.8576 0
11.4919 -1.4288 0
13.246 -1.6519 0
13.25 0 0
11.4919 -1.4288 0
11.5 0 0
11.4678 -5.71521 0
11.4758 -4.28641 0
9.70168 -4.82281 0
9.71376 -3.61711 0
11.4758 -4.28641 0
11.4839 -2.8576 0
9.71376 -3.61711 0
9.72584 -2.41141 0
9.70168 -4.82281 0
9.71376 -3.61711 0
7.93557 -3.93042 0
7.95168 -2.94781 0
9.71376 -3.61711 0
9.72584 -2.41141 0
7.95168 -2.94781 0
7.96778 -1.96521 0
11.4839 -2.8576 0
11.4919 -1.4288 0
9.72584 -2.41141 0
9.73792 -1.2057 0
11.4919 -1.4288 0
11.5 0 0
9.73792 -1.2057 0
9.75 0 0
9.72584 -2.41141 0
9.73792 -1.2057 0
7.96778 -1.96521 0
7.98389 -0.982604 0
9.73792 -1.2057 0
9.75 0 0
7.98389 -0.982604 0
8 0 0
4.452 1.61835 0
4.44086 1.88745 0
3.57824 1.28633 0
3.56575 1.49971 0
4.44086 1.88745 0
4.42972 2.15655 0
3.56575 1.49971 0
3.55326 1.71308 0
3.57824 1.28633 0
3.56575 1.49971 0
2.70447 0.954317 0
2.69064 1.11197 0
3.56575 1.49971 0
3.55326 1.71308 0
2.69064 1.11197 0
2.6768 1.26962 0
4.42972 2.15655 0
4.41305 2.42336 0
3.55326 1.71308 0
3.53551 1.92428 0
4.41305 2.42336 0
4.39637 2.69016 0
3.53551 1.92428 0
3.51776 2.13547 0
3.55326 1.71308 0
3.53551 1.92428 0
2.6768 1.26962 0
2.65797 1.4252 0
3.53551 1.92428 0
3.51776 2.13547 0
2.65797 1.4252 0
2.63915 1.58078 0
4.39637 2.69016 0
4.37969 2.95697 0
3.51776 2.13547 0
3.49894 2.3461 0
4.37969 2.95697 0
4.36302 3.22378 0
3.49894 2.3461 0
3.48013 2.55673 0
3.51776 2.13547 0
3.49894 2.3461 0
2.63915 1.58078 0
2.61819 1.73523 0
3.49894 2.3461 0
3.48013 2.55673 0
2.61819 1.73523 0
2.59724 1.88967 0
2.63915 1.58078 0
2.61819 1.73523 0
1.76053 1.02609 0
1.73796 1.12467 0
2.61819 1.73523 0
2.59724 1.88967 0
1.73796 1.12467 0
1.71436 1.22262 0
1.76053 1.02609 0
1.73796 1.12467 0
0.881921 0.471397 0
0.857729 0.514103 0
1.73796 1.12467 0
1.71436 1.22262 0
0.857729 0.514103 0
[...]
POINT_DATA 3040
VECTORS velocity double
-0.0230054 0.909551 0
-0.026829 0.893493 0
-0.0151275 0.890869 0
-0.0173076 0.868184 0
-0.026829 0.893493 0
-0.027509 0.870085 0
-0.0173076 0.868184 0
-0.0168224 0.840612 0
-0.0151275 0.890869 0
-0.0173076 0.868184 0
-0.0202736 0.857863 0
-0.0250791 0.830806 0
-0.0173076 0.868184 0
-0.0168224 0.840612 0
-0.0250791 0.830806 0
-0.0252463 0.800221 0
-0.027509 0.870085 0
-0.0185677 0.846296 0
-0.0168224 0.840612 0
-0.0110733 0.815938 0
-0.0185677 0.846296 0
0.0002745 0.835776 0
-0.0110733 0.815938 0
9.38027e-05 0.805607 0
-0.0168224 0.840612 0
-0.0110733 0.815938 0
-0.0252463 0.800221 0
-0.0167045 0.773437 0
-0.0110733 0.815938 0
9.38027e-05 0.805607 0
-0.0167045 0.773437 0
0.00010052 0.762591 0
0 1 0
0 1 0
-2.25943e-05 0.947723 0
0.0211319 0.952769 0
0 1 0
0 1 0
0.0211319 0.952769 0
0.0353188 0.963915 0
-2.25943e-05 0.947723 0
0.0211319 0.952769 0
-0.000107922 0.874731 0
0.0287662 0.883337 0
0.0211319 0.952769 0
0.0353188 0.963915 0
0.0287662 0.883337 0
0.0487991 0.904613 0
0 1 0
0 1 0
0.0353188 0.963915 0
0.0424915 0.974199 0
0 1 0
0 1 0
0.0424915 0.974199 0
0.0471812 0.979786 0
0.0353188 0.963915 0
0.0424915 0.974199 0
0.0487991 0.904613 0
0.0590705 0.926988 0
0.0424915 0.974199 0
0.0471812 0.979786 0
0.0590705 0.926988 0
0.0631497 0.943931 0
-0.0152637 0.869681 0
-0.0190765 0.864749 0
-0.0261878 0.844109 0
-0.0304103 0.838675 0
-0.0190765 0.864749 0
-0.0207739 0.861164 0
-0.0304103 0.838675 0
-0.0320618 0.834705 0
-0.0261878 0.844109 0
-0.0304103 0.838675 0
-0.0446239 0.796772 0
-0.0500589 0.790627 0
-0.0304103 0.838675 0
-0.0320618 0.834705 0
-0.0500589 0.790627 0
-0.0520186 0.786319 0
-0.0207739 0.861164 0
-0.0209697 0.858906 0
-0.0320618 0.834705 0
-0.0318734 0.832147 0
-0.0209697 0.858906 0
-0.0202736 0.857863 0
-0.0318734 0.832147 0
-0.030444 0.830807 0
-0.0320618 0.834705 0
-0.0318734 0.832147 0
-0.0520186 0.786319 0
-0.0515499 0.78366 0
-0.0318734 0.832147 0
-0.030444 0.830807 0
-0.0515499 0.78366 0
-0.0494399 0.782682 0
-0.0202736 0.857863 0
-0.0229749 0.845024 0
-0.030444 0.830807 0
-0.0337889 0.815793 0
-0.0229749 0.845024 0
-0.0250791 0.830806 0
-0.0337889 0.815793 0
-0.0361373 0.79912 0
-0.030444 0.830807 0
-0.0337889 0.815793 0
-0.0494399 0.782682 0
-0.0532778 0.76291 0
-0.0337889 0.815793 0
-0.0361373 0.79912 0
-0.0532778 0.76291 0
-0.0554944 0.741164 0
-0.0250791 0.830806 0
-0.0260228 0.815676 0
-0.0361373 0.79912 0
-0.0368462 0.781224 0
-0.0260228 0.815676 0
-0.0252463 0.800221 0
-0.0368462 0.781224 0
-0.0351872 0.763093 0
-0.0361373 0.79912 0
-0.0368462 0.781224 0
-0.0554944 0.741164 0
-0.0553125 0.717835 0
-0.0368462 0.781224 0
-0.0351872 0.763093 0
-0.0553125 0.717835 0
-0.0517401 0.694468 0
-0.0252463 0.800221 0
-0.0222367 0.785695 0
-0.0351872 0.763093 0
-0.0305885 0.745809 0
-0.0222367 0.785695 0
-0.0167045 0.773437 0
-0.0305885 0.745809 0
-0.0227764 0.731459 0
-0.0351872 0.763093 0
-0.0305885 0.745809 0
-0.0517401 0.694468 0
-0.0442819 0.672123 0
-0.0305885 0.745809 0
-0.0227764 0.731459 0
-0.0442819 0.672123 0
-0.0325513 0.653824 0
-0.0167045 0.773437 0
-0.00902159 0.765453 0
-0.0227764 0.731459 0
-0.0121759 0.721997 0
-0.00902159 0.765453 0
0.00010052 0.762591 0
-0.0121759 0.721997 0
2.94267e-05 0.718992 0
-0.0227764 0.731459 0
-0.0121759 0.721997 0
-0.0325513 0.653824 0
-0.017257 0.641942 0
-0.0121759 0.721997 0
2.94267e-05 0.718992 0
-0.017257 0.641942 0
2.24762e-05 0.638467 0
-0.000107922 0.874731 0
0.0150881 0.876898 0
-3.02843e-05 0.806055 0
0.0174239 0.808688 0
0.0150881 0.876898 0
0.0287662 0.883337 0
0.0174239 0.808688 0
0.0332061 0.817447 0
-3.02843e-05 0.806055 0
0.0174239 0.808688 0
-2.32947e-05 0.701153 0
0.0212348 0.704377 0
0.0174239 0.808688 0
0.0332061 0.817447 0
0.0212348 0.704377 0
0.0404537 0.71599 0
0.0287662 0.883337 0
0.0401467 0.893205 0
0.0332061 0.817447 0
0.0460836 0.830739 0
0.0401467 0.893205 0
0.0487991 0.904613 0
0.0460836 0.830739 0
0.0555952 0.846609 0
0.0332061 0.817447 0
0.0460836 0.830739 0
0.0404537 0.71599 0
0.0560117 0.733922 0
0.0460836 0.830739 0
0.0555952 0.846609 0
0.0560117 0.733922 0
0.0671893 0.755782 0
0.0487991 0.904613 0
0.0549448 0.91622 0
0.0555952 0.846609 0
0.0619896 0.86286 0
0.0549448 0.91622 0
0.0590705 0.926988 0
0.0619896 0.86286 0
0.0658366 0.878533 0
0.0555952 0.846609 0
0.0619896 0.86286 0
0.0671893 0.755782 0
0.0743475 0.778307 0
0.0619896 0.86286 0
0.0658366 0.878533 0
0.0743475 0.778307 0
0.0780265 0.800635 0
0.0590705 0.926988 0
0.0616359 0.936368 0
0.0658366 0.878533 0
0.0678702 0.892651 0
0.0616359 0.936368 0
0.0631497 0.943931 0
0.0678702 0.892651 0
0.0687438 0.904875 0
0.0658366 0.878533 0
0.0678702 0.892651 0
0.0780265 0.800635 0
0.0791917 0.821121 0
0.0678702 0.892651 0
0.0687438 0.904875 0
0.0791917 0.821121 0
0.0786536 0.839486 0
0.0631497 0.943931 0
0.06654 0.934602 0
0.0687438 0.904875 0
0.0711337 0.89737 0
0.06654 0.934602 0
0.0683214 0.926535 0
0.0711337 0.89737 0
0.0720095 0.890816 0
0.0687438 0.904875 0
0.0711337 0.89737 0
0.0786536 0.839486 0
0.0811631 0.83348 0
0.0711337 0.89737 0
0.0720095 0.890816 0
0.0811631 0.83348 0
0.0819679 0.82919 0
0.0683214 0.926535 0
0.0678798 0.919466 0
0.0720095 0.890816 0
0.0708531 0.885575 0
0.0678798 0.919466 0
0.0648672 0.913598 0
0.0708531 0.885575 0
0.0669703 0.881729 0
0.0720095 0.890816 0
0.0708531 0.885575 0
0.0819679 0.82919 0
0.0802032 0.826478 0
0.0708531 0.885575 0
0.0669703 0.881729 0
0.0802032 0.826478 0
0.0748875 0.825587 0
0.03635 0.939508 0
0.0246958 0.932636 0
0.0344895 0.929911 0
0.0225377 0.923665 0
0.0246958 0.932636 0
0.0141746 0.925324 0
0.0225377 0.923665 0
0.0118797 0.917589 0
0.0344895 0.929911 0
0.0225377 0.923665 0
0.0321706 0.921123 0
0.0202445 0.914897 0
0.0225377 0.923665 0
0.0118797 0.917589 0
0.0202445 0.914897 0
0.00958578 0.908789 0
0.0141746 0.925324 0
0.00565216 0.91847 0
0.0118797 0.917589 0
0.00343199 0.912067 0
0.00565216 0.91847 0
-0.00084879 0.912979 0
0.00343199 0.912067 0
-0.00264653 0.907484 0
0.0118797 0.917589 0
0.00343199 0.912067 0
0.00958578 0.908789 0
0.0011042 0.903175 0
0.00343199 0.912067 0
-0.00264653 0.907484 0
0.0011042 0.903175 0
-0.00493718 0.898441 0
0.0321706 0.921123 0
0.0202445 0.914897 0
0.0291359 0.910545 0
0.0169516 0.904295 0
0.0202445 0.914897 0
0.00958578 0.908789 0
0.0169516 0.904295 0
0.00605561 0.89785 0
0.0291359 0.910545 0
0.0169516 0.904295 0
0.0252845 0.89521 0
0.0121626 0.889115 0
0.0169516 0.904295 0
0.00605561 0.89785 0
0.0121626 0.889115 0
0.000444326 0.882425 0
0.00958578 0.908789 0
0.0011042 0.903175 0
0.00605561 0.89785 0
-0.002609 0.891686 0
0.0011042 0.903175 0
-0.00493718 0.898441 0
-0.002609 0.891686 0
-0.00871843 0.886316 0
0.00605561 0.89785 0
-0.002609 0.891686 0
0.000444326 0.882425 0
-0.00882356 0.875736 0
-0.002609 0.891686 0
-0.00871843 0.886316 0
-0.00882356 0.875736 0
-0.0152637 0.869681 0
-0.00084879 0.912979 0
-0.00599201 0.909464 0
-0.00264653 0.907484 0
-0.00685696 0.904095 0
-0.00599201 0.909464 0
-0.0108475 0.90809 0
-0.00685696 0.904095 0
-0.0101065 0.902021 0
-0.00264653 0.907484 0
-0.00685696 0.904095 0
-0.00493718 0.898441 0
-0.00885628 0.894825 0
-0.00685696 0.904095 0
-0.0101065 0.902021 0
-0.00885628 0.894825 0
-0.0113251 0.8924 0
-0.0108475 0.90809 0
-0.0163669 0.908503 0
-0.0101065 0.902021 0
-0.0134966 0.901247 0
-0.0163669 0.908503 0
-0.0230054 0.909551 0
-0.0134966 0.901247 0
-0.0179911 0.901661 0
-0.0101065 0.902021 0
-0.0134966 0.901247 0
-0.0113251 0.8924 0
-0.0131324 0.891114 0
-0.0134966 0.901247 0
-0.0179911 0.901661 0
-0.0131324 0.891114 0
-0.0151275 0.890869 0
-0.00493718 0.898441 0
-0.00885628 0.894825 0
-0.00871843 0.886316 0
-0.0124986 0.882066 0
-0.00885628 0.894825 0
-0.0113251 0.8924 0
-0.0124986 0.882066 0
-0.0144898 0.879096 0
-0.00871843 0.886316 0
-0.0124986 0.882066 0
-0.0152637 0.869681 0
-0.0190765 0.864749 0
-0.0124986 0.882066 0
-0.0144898 0.879096 0
-0.0190765 0.864749 0
-0.0207739 0.861164 0
-0.0113251 0.8924 0
-0.0131324 0.891114 0
-0.0144898 0.879096 0
-0.0154002 0.877375 0
-0.0131324 0.891114 0
-0.0151275 0.890869 0
-0.0154002 0.877375 0
-0.0158049 0.876709 0
-0.0144898 0.879096 0
-0.0154002 0.877375 0
-0.0207739 0.861164 0
-0.0209697 0.858906 0
-0.0154002 0.877375 0
-0.0158049 0.876709 0
-0.0209697 0.858906 0
-0.0202736 0.857863 0
0 1 0
0.0338212 0.9728 0
0.0269709 0.985005 0
0.0470002 0.977323 0
0.0338212 0.9728 0
0.0508953 0.968627 0
0.0470002 0.977323 0
0.059452 0.969929 0
0.0269709 0.985005 0
0.0470002 0.977323 0
0.0471812 0.979786 0
0.0582946 0.972617 0
0.0470002 0.977323 0
0.059452 0.969929 0
0.0582946 0.972617 0
0.0646195 0.963708 0
0.0508953 0.968627 0
0.060691 0.962618 0
0.059452 0.969929 0
0.0655123 0.962393 0
0.060691 0.962618 0
0.0641903 0.9588 0
0.0655123 0.962393 0
0.0665669 0.955231 0
0.059452 0.969929 0
0.0655123 0.962393 0
0.0646195 0.963708 0
0.0673256 0.955166 0
0.0655123 0.962393 0
0.0665669 0.955231 0
0.0673256 0.955166 0
0.0663911 0.947144 0
0.0471812 0.979786 0
0.0582946 0.972617 0
0.0579774 0.967891 0
0.0636944 0.958815 0
0.0582946 0.972617 0
0.0646195 0.963708 0
0.0636944 0.958815 0
0.0667765 0.949662 0
0.0579774 0.967891 0
0.0636944 0.958815 0
0.0631497 0.943931 0
0.06654 0.934602 0
0.0636944 0.958815 0
0.0667765 0.949662 0
0.06654 0.934602 0
0.0683214 0.926535 0
0.0646195 0.963708 0
0.0673256 0.955166 0
0.0667765 0.949662 0
0.0674495 0.941293 0
0.0673256 0.955166 0
0.0663911 0.947144 0
0.0674495 0.941293 0
0.0652922 0.933902 0
0.0667765 0.949662 0
0.0674495 0.941293 0
0.0683214 0.926535 0
0.0678798 0.919466 0
0.0674495 0.941293 0
0.0652922 0.933902 0
0.0678798 0.919466 0
0.0648672 0.913598 0
0.0641903 0.9588 0
0.0627039 0.954592 0
0.0665669 0.955231 0
0.0633154 0.94853 0
0.0627039 0.954592 0
0.0568513 0.950329 0
0.0633154 0.94853 0
0.0562871 0.942213 0
0.0665669 0.955231 0
0.0633154 0.94853 0
0.0663911 0.947144 0
0.0619756 0.939924 0
0.0633154 0.94853 0
0.0562871 0.942213 0
0.0619756 0.939924 0
0.0542957 0.93338 0
0.0568513 0.950329 0
0.0476276 0.945402 0
0.0562871 0.942213 0
0.0462598 0.936072 0
0.0476276 0.945402 0
0.03635 0.939508 0
0.0462598 0.936072 0
0.0344895 0.929911 0
0.0562871 0.942213 0
0.0462598 0.936072 0
0.0542957 0.93338 0
0.0439868 0.927216 0
0.0462598 0.936072 0
0.0344895 0.929911 0
0.0439868 0.927216 0
0.0321706 0.921123 0
0.0663911 0.947144 0
0.0619756 0.939924 0
0.0652922 0.933902 0
0.0600931 0.92747 0
0.0619756 0.939924 0
0.0542957 0.93338 0
0.0600931 0.92747 0
0.0518989 0.921737 0
0.0652922 0.933902 0
0.0600931 0.92747 0
0.0648672 0.913598 0
0.0588875 0.908734 0
0.0600931 0.92747 0
0.0518989 0.921737 0
0.0588875 0.908734 0
0.0498801 0.904445 0
0.0542957 0.93338 0
0.0439868 0.927216 0
0.0518989 0.921737 0
0.0412268 0.916243 0
0.0439868 0.927216 0
0.0321706 0.921123 0
0.0412268 0.916243 0
0.0291359 0.910545 0
0.0518989 0.921737 0
0.0412268 0.916243 0
0.0498801 0.904445 0
0.038311 0.900127 0
0.0412268 0.916243 0
0.0291359 0.910545 0
0.038311 0.900127 0
0.0252845 0.89521 0
-0.0353232 0.8037 0
-0.0405546 0.800066 0
-0.0476926 0.761301 0
-0.0540714 0.757403 0
-0.0405546 0.800066 0
-0.0446239 0.796772 0
-0.0540714 0.757403 0
-0.0591657 0.753777 0
-0.0476926 0.761301 0
-0.0540714 0.757403 0
-0.064142 0.68863 0
-0.0723184 0.684305 0
-0.0540714 0.757403 0
-0.0591657 0.753777 0
-0.0723184 0.684305 0
-0.0789797 0.68022 0
-0.0446239 0.796772 0
-0.0478245 0.793495 0
-0.0591657 0.753777 0
-0.0631579 0.750203 0
-0.0478245 0.793495 0
-0.0500589 0.790627 0
-0.0631579 0.750203 0
-0.0659755 0.747061 0
-0.0591657 0.753777 0
-0.0631579 0.750203 0
-0.0789797 0.68022 0
-0.0842858 0.675894 0
-0.0631579 0.750203 0
-0.0659755 0.747061 0
-0.0842858 0.675894 0
-0.0882013 0.671932 0
-0.0500589 0.790627 0
-0.0514166 0.788226 0
-0.0659755 0.747061 0
-0.0677604 0.744394 0
-0.0514166 0.788226 0
-0.0520186 0.786319 0
-0.0677604 0.744394 0
-0.0686464 0.74229 0
-0.0659755 0.747061 0
-0.0677604 0.744394 0
-0.0882013 0.671932 0
-0.0911122 0.668741 0
-0.0677604 0.744394 0
-0.0686464 0.74229 0
-0.0911122 0.668741 0
-0.0929245 0.666177 0
-0.0882013 0.671932 0
-0.0911122 0.668741 0
-0.118182 0.516088 0
-0.123559 0.511263 0
-0.0911122 0.668741 0
-0.0929245 0.666177 0
-0.123559 0.511263 0
-0.126587 0.506983 0
-0.118182 0.516088 0
-0.123559 0.511263 0
0 0 0
0 0 0
-0.123559 0.511263 0
-0.126587 0.506983 0
0 0 0
0 0 0
-0.0520186 0.786319 0
-0.0520433 0.784757 0
-0.0686464 0.74229 0
-0.0688868 0.740497 0
-0.0520433 0.784757 0
-0.0515499 0.78366 0
-0.0688868 0.740497 0
-0.0683473 0.739235 0
-0.0686464 0.74229 0
-0.0688868 0.740497 0
-0.0929245 0.666177 0
-0.0937259 0.663801 0
-0.0688868 0.740497 0
-0.0683473 0.739235 0
-0.0937259 0.663801 0
-0.0926504 0.662123 0
-0.0515499 0.78366 0
-0.0506409 0.782996 0
-0.0683473 0.739235 0
-0.0672991 0.738511 0
-0.0506409 0.782996 0
-0.0494399 0.782682 0
-0.0672991 0.738511 0
-0.0657878 0.738234 0
-0.0683473 0.739235 0
-0.0672991 0.738511 0
-0.0926504 0.662123 0
-0.091819 0.661135 0
-0.0672991 0.738511 0
-0.0657878 0.738234 0
-0.091819 0.661135 0
-0.0903112 0.660655 0
-0.0929245 0.666177 0
-0.0937259 0.663801 0
-0.126587 0.506983 0
-0.126915 0.503019 0
-0.0937259 0.663801 0
-0.0926504 0.662123 0
-0.126915 0.503019 0
-0.123845 0.500777 0
-0.126587 0.506983 0
-0.126915 0.503019 0
0 0 0
0 0 0
-0.126915 0.503019 0
-0.123845 0.500777 0
0 0 0
0 0 0
-0.0494399 0.782682 0
-0.0515012 0.773096 0
-0.0657878 0.738234 0
-0.0679779 0.72653 0
-0.0515012 0.773096 0
-0.0532778 0.76291 0
-0.0679779 0.72653 0
-0.0697195 0.714157 0
-0.0657878 0.738234 0
-0.0679779 0.72653 0
-0.0903112 0.660655 0
-0.0925494 0.645835 0
-0.0679779 0.72653 0
-0.0697195 0.714157 0
-0.0925494 0.645835 0
-0.0941595 0.630311 0
-0.0532778 0.76291 0
-0.0546429 0.752242 0
-0.0697195 0.714157 0
-0.0709178 0.701219 0
-0.0546429 0.752242 0
-0.0554944 0.741164 0
-0.0709178 0.701219 0
-0.0714465 0.687899 0
-0.0697195 0.714157 0
-0.0709178 0.701219 0
-0.0941595 0.630311 0
-0.0949964 0.614068 0
-0.0709178 0.701219 0
-0.0714465 0.687899 0
-0.0949964 0.614068 0
-0.0948354 0.597536 0
-0.0554944 0.741164 0
-0.055774 0.729603 0
-0.0714465 0.687899 0
-0.0712725 0.674028 0
-0.055774 0.729603 0
-0.0553125 0.717835 0
-0.0712725 0.674028 0
-0.0701806 0.660032 0
-0.0714465 0.687899 0
-0.0712725 0.674028 0
-0.0948354 0.597536 0
-0.0936889 0.580428 0
-0.0712725 0.674028 0
-0.0701806 0.660032 0
-0.0936889 0.580428 0
-0.0913371 0.563475 0
-0.0553125 0.717835 0
-0.0539994 0.706058 0
-0.0701806 0.660032 0
-0.0680667 0.646042 0
-0.0539994 0.706058 0
-0.0517401 0.694468 0
-0.0680667 0.646042 0
-0.0648095 0.632411 0
-0.0701806 0.660032 0
-0.0680667 0.646042 0
-0.0913371 0.563475 0
-0.0877666 0.546652 0
-0.0680667 0.646042 0
-0.0648095 0.632411 0
-0.0877666 0.546652 0
-0.0828464 0.530528 0
-0.0517401 0.694468 0
-0.0485527 0.682962 0
-0.0648095 0.632411 0
-0.0604563 0.618885 0
-0.0485527 0.682962 0
-0.0442819 0.672123 0
-0.0604563 0.618885 0
-0.0548377 0.606287 0
-0.0648095 0.632411 0
-0.0604563 0.618885 0
-0.0828464 0.530528 0
-0.0766764 0.514577 0
-0.0604563 0.618885 0
-0.0548377 0.606287 0
-0.0766764 0.514577 0
-0.0690588 0.499933 0
-0.0442819 0.672123 0
-0.038935 0.662314 0
-0.0548377 0.606287 0
-0.0479834 0.594871 0
-0.038935 0.662314 0
-0.0325513 0.653824 0
-0.0479834 0.594871 0
-0.0399607 0.585111 0
-0.0548377 0.606287 0
-0.0479834 0.594871 0
-0.0690588 0.499933 0
-0.0600753 0.486646 0
-0.0479834 0.594871 0
-0.0399607 0.585111 0
-0.0600753 0.486646 0
-0.0497758 0.475457 0
-0.0325513 0.653824 0
-0.0252721 0.646932 0
-0.0399607 0.585111 0
-0.0309337 0.577103 0
-0.0252721 0.646932 0
-0.017257 0.641942 0
-0.0309337 0.577103 0
-0.0210775 0.571375 0
-0.0399607 0.585111 0
-0.0309337 0.577103 0
-0.0497758 0.475457 0
-0.038393 0.466118 0
-0.0309337 0.577103 0
-0.0210775 0.571375 0
-0.038393 0.466118 0
-0.0260891 0.459536 0
-0.017257 0.641942 0
-0.0087522 0.639097 0
-0.0210775 0.571375 0
-0.010665 0.568125 0
-0.0087522 0.639097 0
2.24762e-05 0.638467 0
-0.010665 0.568125 0
6.30196e-06 0.5675 0
-0.0210775 0.571375 0
-0.010665 0.568125 0
-0.0260891 0.459536 0
-0.0131773 0.455856 0
-0.010665 0.568125 0
6.30196e-06 0.5675 0
-0.0131773 0.455856 0
3.62939e-06 0.455298 0
-2.32947e-05 0.701153 0
0.0107444 0.701658 0
-6.50632e-06 0.61672 0
0.0123398 0.617252 0
0.0107444 0.701658 0
0.0212348 0.704377 0
0.0123398 0.617252 0
0.0244185 0.620444 0
-6.50632e-06 0.61672 0
0.0123398 0.617252 0
-3.77082e-06 0.490286 0
0.0145549 0.490775 0
0.0123398 0.617252 0
0.0244185 0.620444 0
0.0145549 0.490775 0
0.0288331 0.494464 0
0.0212348 0.704377 0
0.0312222 0.709238 0
0.0244185 0.620444 0
0.0359233 0.626139 0
0.0312222 0.709238 0
0.0404537 0.71599 0
0.0359233 0.626139 0
0.0465741 0.634137 0
0.0244185 0.620444 0
0.0359233 0.626139 0
0.0288331 0.494464 0
0.0424791 0.501113 0
0.0359233 0.626139 0
0.0465741 0.634137 0
0.0424791 0.501113 0
0.0551694 0.510578 0
0.0404537 0.71599 0
0.0487645 0.724308 0
0.0465741 0.634137 0
0.0561884 0.643861 0
0.0487645 0.724308 0
0.0560117 0.733922 0
0.0561884 0.643861 0
0.0646023 0.655244 0
0.0465741 0.634137 0
0.0561884 0.643861 0
0.0551694 0.510578 0
0.0667323 0.521874 0
0.0561884 0.643861 0
0.0646023 0.655244 0
0.0667323 0.521874 0
0.0769342 0.535297 0
0.0560117 0.733922 0
0.0621555 0.744536 0
0.0646023 0.655244 0
0.0717461 0.667786 0
0.0621555 0.744536 0
0.0671893 0.755782 0
0.0717461 0.667786 0
0.077594 0.681238 0
0.0646023 0.655244 0
0.0717461 0.667786 0
0.0769342 0.535297 0
0.0857218 0.550052 0
0.0717461 0.667786 0
0.077594 0.681238 0
0.0857218 0.550052 0
0.0930198 0.566114 0
0.0671893 0.755782 0
0.0712537 0.766971 0
0.077594 0.681238 0
0.0823041 0.694677 0
0.0712537 0.766971 0
0.0743475 0.778307 0
0.0823041 0.694677 0
0.0858465 0.708449 0
0.077594 0.681238 0
0.0823041 0.694677 0
0.0930198 0.566114 0
0.0990193 0.582245 0
0.0823041 0.694677 0
0.0858465 0.708449 0
0.0990193 0.582245 0
0.103638 0.599056 0
0.0743475 0.778307 0
0.0765676 0.789595 0
0.0858465 0.708449 0
0.088343 0.722181 0
0.0765676 0.789595 0
0.0780265 0.800635 0
0.088343 0.722181 0
0.0899045 0.735755 0
0.0858465 0.708449 0
0.088343 0.722181 0
0.103638 0.599056 0
0.107005 0.615941 0
0.088343 0.722181 0
0.0899045 0.735755 0
0.107005 0.615941 0
0.109146 0.632952 0
0.0780265 0.800635 0
0.0788768 0.811102 0
0.0899045 0.735755 0
0.0907337 0.748691 0
0.0788768 0.811102 0
0.0791917 0.821121 0
0.0907337 0.748691 0
0.0908831 0.761216 0
0.0899045 0.735755 0
0.0907337 0.748691 0
0.109146 0.632952 0
0.110269 0.649296 0
0.0907337 0.748691 0
0.0908831 0.761216 0
0.110269 0.649296 0
0.110381 0.665319 0
0.0791917 0.821121 0
0.0790744 0.83062 0
0.0908831 0.761216 0
0.0904753 0.773135 0
0.0790744 0.83062 0
0.0786536 0.839486 0
0.0904753 0.773135 0
0.0896105 0.784356 0
0.0908831 0.761216 0
0.0904753 0.773135 0
0.110381 0.665319 0
0.109702 0.680562 0
0.0904753 0.773135 0
0.0896105 0.784356 0
0.109702 0.680562 0
0.108393 0.695069 0
0.0786536 0.839486 0
0.0800566 0.836296 0
0.0896105 0.784356 0
0.091282 0.78185 0
0.0800566 0.836296 0
0.0811631 0.83348 0
0.091282 0.78185 0
0.0924699 0.779788 0
0.0896105 0.784356 0
0.091282 0.78185 0
0.108393 0.695069 0
0.110017 0.693529 0
0.091282 0.78185 0
0.0924699 0.779788 0
0.110017 0.693529 0
0.110938 0.692508 0
0.0811631 0.83348 0
0.0818374 0.831105 0
0.0924699 0.779788 0
0.0931262 0.778257 0
0.0818374 0.831105 0
0.0819679 0.82919 0
0.0931262 0.778257 0
0.092981 0.777259 0
0.0924699 0.779788 0
0.0931262 0.778257 0
0.110938 0.692508 0
0.112107 0.692167 0
0.0931262 0.778257 0
0.092981 0.777259 0
0.112107 0.692167 0
0.11133 0.692524 0
0.110938 0.692508 0
0.112107 0.692167 0
0.135824 0.519848 0
0.138983 0.520987 0
0.112107 0.692167 0
0.11133 0.692524 0
0.138983 0.520987 0
0.138606 0.523861 0
0.135824 0.519848 0
0.138983 0.520987 0
0 0 0
0 0 0
0.138983 0.520987 0
0.138606 0.523861 0
0 0 0
0 0 0
0.0819679 0.82919 0
0.0814735 0.827587 0
0.092981 0.777259 0
0.0921474 0.776539 0
0.0814735 0.827587 0
0.0802032 0.826478 0
0.0921474 0.776539 0
0.0903967 0.776379 0
0.092981 0.777259 0
0.0921474 0.776539 0
0.11133 0.692524 0
0.109485 0.693027 0
0.0921474 0.776539 0
0.0903967 0.776379 0
0.109485 0.693027 0
0.106522 0.694146 0
0.0802032 0.826478 0
0.078037 0.825832 0
0.0903967 0.776379 0
0.0875871 0.776683 0
0.078037 0.825832 0
0.0748875 0.825587 0