# vtk DataFile Version 3.0
#This file was generated by the deal.II library on 2016/6/14 at 11:41:27
ASCII
DATASET UNSTRUCTURED_GRID

POINTS 3072 double
10 10 10
5 10 10
7.64434 7.64434 7.64434
3.82217 7.65042 7.65042
10 5 10
5 5 10
7.65042 3.82217 7.65042
3.82521 3.82521 7.6582
5 10 10
0 10 10
3.82217 7.65042 7.65042
0 7.6565 7.6565
5 5 10
0 5 10
3.82521 3.82521 7.6582
0 3.82825 7.66598
7.64434 7.64434 7.64434
3.82217 7.65042 7.65042
5.28868 5.28868 5.28868
2.64434 5.30084 5.30084
7.65042 3.82217 7.65042
3.82521 3.82521 7.6582
5.30084 2.64434 5.30084
2.65042 2.65042 5.3164
3.82217 7.65042 7.65042
0 7.6565 7.6565
2.64434 5.30084 5.30084
0 5.313 5.313
3.82521 3.82521 7.6582
0 3.82825 7.66598
2.65042 2.65042 5.3164
0 2.6565 5.33197
10 5 10
5 5 10
7.65042 3.82217 7.65042
3.82521 3.82521 7.6582
10 0 10
5 0 10
7.6565 -1.38778e-17 7.6565
3.82825 -2.08167e-17 7.66598
5 5 10
0 5 10
3.82521 3.82521 7.6582
0 3.82825 7.66598
5 0 10
0 0 10
3.82825 -2.08167e-17 7.66598
0 -2.77556e-17 7.67546
7.65042 3.82217 7.65042
3.82521 3.82521 7.6582
5.30084 2.64434 5.30084
2.65042 2.65042 5.3164
7.6565 -1.38778e-17 7.6565
3.82825 -2.08167e-17 7.66598
5.313 -2.77556e-17 5.313
2.6565 -4.16334e-17 5.33197
3.82521 3.82521 7.6582
0 3.82825 7.66598
2.65042 2.65042 5.3164
0 2.6565 5.33197
3.82825 -2.08167e-17 7.66598
0 -2.77556e-17 7.67546
2.6565 -4.16334e-17 5.33197
0 -5.55112e-17 5.35093
0 10 10
-5 10 10
0 7.6565 7.6565
-3.82217 7.65042 7.65042
0 5 10
-5 5 10
0 3.82825 7.66598
-3.82521 3.82521 7.6582
-5 10 10
-10 10 10
-3.82217 7.65042 7.65042
-7.64434 7.64434 7.64434
-5 5 10
-10 5 10
-3.82521 3.82521 7.6582
-7.65042 3.82217 7.65042
0 7.6565 7.6565
-3.82217 7.65042 7.65042
0 5.313 5.313
-2.64434 5.30084 5.30084
0 3.82825 7.66598
-3.82521 3.82521 7.6582
0 2.6565 5.33197
-2.65042 2.65042 5.3164
-3.82217 7.65042 7.65042
-7.64434 7.64434 7.64434
-2.64434 5.30084 5.30084
-5.28868 5.28868 5.28868
-3.82521 3.82521 7.6582
-7.65042 3.82217 7.65042
-2.65042 2.65042 5.3164
-5.30084 2.64434 5.30084
0 5 10
-5 5 10
0 3.82825 7.66598
-3.82521 3.82521 7.6582
0 0 10
-5 0 10
0 -2.77556e-17 7.67546
-3.82825 -2.08167e-17 7.66598
-5 5 10
-10 5 10
-3.82521 3.82521 7.6582
-7.65042 3.82217 7.65042
-5 0 10
-10 0 10
-3.82825 -2.08167e-17 7.66598
-7.6565 -1.38778e-17 7.6565
0 3.82825 7.66598
-3.82521 3.82521 7.6582
0 2.6565 5.33197
-2.65042 2.65042 5.3164
0 -2.77556e-17 7.67546
-3.82825 -2.08167e-17 7.66598
0 -5.55112e-17 5.35093
-2.6565 -4.16334e-17 5.33197
-3.82521 3.82521 7.6582
-7.65042 3.82217 7.65042
-2.65042 2.65042 5.3164
-5.30084 2.64434 5.30084
-3.82825 -2.08167e-17 7.66598
-7.6565 -1.38778e-17 7.6565
-2.6565 -4.16334e-17 5.33197
-5.313 -2.77556e-17 5.313
5.28868 5.28868 5.28868
2.64434 5.30084 5.30084
2.93301 2.93301 2.93301
1.46917 2.97747 2.97747
5.30084 2.64434 5.30084
2.65042 2.65042 5.3164
2.97747 1.46917 2.97747
1.49339 1.49339 3.05177
2.64434 5.30084 5.30084
0 5.313 5.313
1.46917 2.97747 2.97747
0 3.01006 3.01006
2.65042 2.65042 5.3164
0 2.6565 5.33197
1.49339 1.49339 3.05177
0 1.51049 3.10595
2.93301 2.93301 2.93301
1.46917 2.97747 2.97747
0.57735 0.57735 0.57735
0.302905 0.673887 0.673887
2.97747 1.46917 2.97747
1.49339 1.49339 3.05177
0.673887 0.302905 0.673887
0.365731 0.365731 0.855851
1.46917 2.97747 2.97747
0 3.01006 3.01006
0.302905 0.673887 0.673887
0 0.707107 0.707107
1.49339 1.49339 3.05177
0 1.51049 3.10595
0.365731 0.365731 0.855851
0 0.382683 0.92388
5.30084 2.64434 5.30084
2.65042 2.65042 5.3164
2.97747 1.46917 2.97747
1.49339 1.49339 3.05177
5.313 -2.77556e-17 5.313
2.6565 -4.16334e-17 5.33197
3.01006 -1.38778e-17 3.01006
1.51049 -2.08167e-17 3.10595
2.65042 2.65042 5.3164
0 2.6565 5.33197
1.49339 1.49339 3.05177
0 1.51049 3.10595
2.6565 -4.16334e-17 5.33197
0 -5.55112e-17 5.35093
1.51049 -2.08167e-17 3.10595
0 -2.77556e-17 3.17546
2.97747 1.46917 2.97747
1.49339 1.49339 3.05177
0.673887 0.302905 0.673887
0.365731 0.365731 0.855851
3.01006 -1.38778e-17 3.01006
1.51049 -2.08167e-17 3.10595
0.707107 0 0.707107
0.382683 0 0.92388
1.49339 1.49339 3.05177
0 1.51049 3.10595
0.365731 0.365731 0.855851
0 0.382683 0.92388
1.51049 -2.08167e-17 3.10595
0 -2.77556e-17 3.17546
0.382683 0 0.92388
0 0 1
0 5.313 5.313
-2.64434 5.30084 5.30084
0 3.01006 3.01006
-1.46917 2.97747 2.97747
0 2.6565 5.33197
-2.65042 2.65042 5.3164
0 1.51049 3.10595
-1.49339 1.49339 3.05177
-2.64434 5.30084 5.30084
-5.28868 5.28868 5.28868
-1.46917 2.97747 2.97747
-2.93301 2.93301 2.93301
-2.65042 2.65042 5.3164
-5.30084 2.64434 5.30084
-1.49339 1.49339 3.05177
-2.97747 1.46917 2.97747
0 3.01006 3.01006
-1.46917 2.97747 2.97747
0 0.707107 0.707107
-0.302905 0.673887 0.673887
0 1.51049 3.10595
-1.49339 1.49339 3.05177
0 0.382683 0.92388
-0.365731 0.365731 0.855851
-1.46917 2.97747 2.97747
-2.93301 2.93301 2.93301
-0.302905 0.673887 0.673887
-0.57735 0.57735 0.57735
-1.49339 1.49339 3.05177
-2.97747 1.46917 2.97747
-0.365731 0.365731 0.855851
-0.673887 0.302905 0.673887
0 2.6565 5.33197
-2.65042 2.65042 5.3164
0 1.51049 3.10595
-1.49339 1.49339 3.05177
0 -5.55112e-17 5.35093
-2.6565 -4.16334e-17 5.33197
0 -2.77556e-17 3.17546
-1.51049 -2.08167e-17 3.10595
-2.65042 2.65042 5.3164
-5.30084 2.64434 5.30084
-1.49339 1.49339 3.05177
-2.97747 1.46917 2.97747
-2.6565 -4.16334e-17 5.33197
-5.313 -2.77556e-17 5.313
-1.51049 -2.08167e-17 3.10595
-3.01006 -1.38778e-17 3.01006
0 1.51049 3.10595
-1.49339 1.49339 3.05177
0 0.382683 0.92388
-0.365731 0.365731 0.855851
0 -2.77556e-17 3.17546
-1.51049 -2.08167e-17 3.10595
0 0 1
-0.382683 0 0.92388
-1.49339 1.49339 3.05177
-2.97747 1.46917 2.97747
-0.365731 0.365731 0.855851
-0.673887 0.302905 0.673887
-1.51049 -2.08167e-17 3.10595
-3.01006 -1.38778e-17 3.01006
-0.382683 0 0.92388
-0.707107 0 0.707107
10 0 10
5 0 10
7.6565 -1.38778e-17 7.6565
3.82825 -2.08167e-17 7.66598
10 -5 10
5 -5 10
7.65042 -3.82217 7.65042
3.82521 -3.82521 7.6582
5 0 10
0 0 10
3.82825 -2.08167e-17 7.66598
0 -2.77556e-17 7.67546
5 -5 10
0 -5 10
3.82521 -3.82521 7.6582
0 -3.82825 7.66598
7.6565 -1.38778e-17 7.6565
3.82825 -2.08167e-17 7.66598
5.313 -2.77556e-17 5.313
2.6565 -4.16334e-17 5.33197
7.65042 -3.82217 7.65042
3.82521 -3.82521 7.6582
5.30084 -2.64434 5.30084
2.65042 -2.65042 5.3164
3.82825 -2.08167e-17 7.66598
0 -2.77556e-17 7.67546
2.6565 -4.16334e-17 5.33197
0 -5.55112e-17 5.35093
3.82521 -3.82521 7.6582
0 -3.82825 7.66598
2.65042 -2.65042 5.3164
0 -2.6565 5.33197
10 -5 10
5 -5 10
7.65042 -3.82217 7.65042
3.82521 -3.82521 7.6582
10 -10 10
5 -10 10
7.64434 -7.64434 7.64434
3.82217 -7.65042 7.65042
5 -5 10
0 -5 10
3.82521 -3.82521 7.6582
0 -3.82825 7.66598
5 -10 10
0 -10 10
3.82217 -7.65042 7.65042
0 -7.6565 7.6565
7.65042 -3.82217 7.65042
3.82521 -3.82521 7.6582
5.30084 -2.64434 5.30084
2.65042 -2.65042 5.3164
7.64434 -7.64434 7.64434
3.82217 -7.65042 7.65042
5.28868 -5.28868 5.28868
2.64434 -5.30084 5.30084
3.82521 -3.82521 7.6582
0 -3.82825 7.66598
2.65042 -2.65042 5.3164
0 -2.6565 5.33197
3.82217 -7.65042 7.65042
0 -7.6565 7.6565
2.64434 -5.30084 5.30084
0 -5.313 5.313
0 0 10
-5 0 10
0 -2.77556e-17 7.67546
-3.82825 -2.08167e-17 7.66598
0 -5 10
-5 -5 10
0 -3.82825 7.66598
-3.82521 -3.82521 7.6582
-5 0 10
-10 0 10
-3.82825 -2.08167e-17 7.66598
-7.6565 -1.38778e-17 7.6565
-5 -5 10
-10 -5 10
-3.82521 -3.82521 7.6582
-7.65042 -3.82217 7.65042
0 -2.77556e-17 7.67546
-3.82825 -2.08167e-17 7.66598
0 -5.55112e-17 5.35093
-2.6565 -4.16334e-17 5.33197
0 -3.82825 7.66598
-3.82521 -3.82521 7.6582
0 -2.6565 5.33197
-2.65042 -2.65042 5.3164
-3.82825 -2.08167e-17 7.66598
-7.6565 -1.38778e-17 7.6565
-2.6565 -4.16334e-17 5.33197
-5.313 -2.77556e-17 5.313
-3.82521 -3.82521 7.6582
-7.65042 -3.82217 7.65042
-2.65042 -2.65042 5.3164
-5.30084 -2.64434 5.30084
0 -5 10
-5 -5 10
0 -3.82825 7.66598
-3.82521 -3.82521 7.6582
0 -10 10
-5 -10 10
0 -7.6565 7.6565
-3.82217 -7.65042 7.65042
-5 -5 10
-10 -5 10
-3.82521 -3.82521 7.6582
-7.65042 -3.82217 7.65042
-5 -10 10
-10 -10 10
-3.82217 -7.65042 7.65042
-7.64434 -7.64434 7.64434
0 -3.82825 7.66598
-3.82521 -3.82521 7.6582
0 -2.6565 5.33197
-2.65042 -2.65042 5.3164
0 -7.6565 7.6565
-3.82217 -7.65042 7.65042
0 -5.313 5.313
-2.64434 -5.30084 5.30084
-3.82521 -3.82521 7.6582
-7.65042 -3.82217 7.65042
-2.65042 -2.65042 5.3164
-5.30084 -2.64434 5.30084
-3.82217 -7.65042 7.65042
-7.64434 -7.64434 7.64434
-2.64434 -5.30084 5.30084
-5.28868 -5.28868 5.28868
5.313 -2.77556e-17 5.313
2.6565 -4.16334e-17 5.33197
3.01006 -1.38778e-17 3.01006
1.51049 -2.08167e-17 3.10595
5.30084 -2.64434 5.30084
2.65042 -2.65042 5.3164
2.97747 -1.46917 2.97747
1.49339 -1.49339 3.05177
2.6565 -4.16334e-17 5.33197
0 -5.55112e-17 5.35093
1.51049 -2.08167e-17 3.10595
0 -2.77556e-17 3.17546
2.65042 -2.65042 5.3164
0 -2.6565 5.33197
1.49339 -1.49339 3.05177
0 -1.51049 3.10595
3.01006 -1.38778e-17 3.01006
1.51049 -2.08167e-17 3.10595
0.707107 0 0.707107
0.382683 0 0.92388
2.97747 -1.46917 2.97747
1.49339 -1.49339 3.05177
0.673887 -0.302905 0.673887
0.365731 -0.365731 0.855851
1.51049 -2.08167e-17 3.10595
0 -2.77556e-17 3.17546
0.382683 0 0.92388
0 0 1
1.49339 -1.49339 3.05177
0 -1.51049 3.10595
0.365731 -0.365731 0.855851
0 -0.382683 0.92388
5.30084 -2.64434 5.30084
2.65042 -2.65042 5.3164
2.97747 -1.46917 2.97747
1.49339 -1.49339 3.05177
5.28868 -5.28868 5.28868
2.64434 -5.30084 5.30084
2.93301 -2.93301 2.93301
1.46917 -2.97747 2.97747
2.65042 -2.65042 5.3164
0 -2.6565 5.33197
1.49339 -1.49339 3.05177
0 -1.51049 3.10595
2.64434 -5.30084 5.30084
0 -5.313 5.313
1.46917 -2.97747 2.97747
0 -3.01006 3.01006
2.97747 -1.46917 2.97747
1.49339 -1.49339 3.05177
0.673887 -0.302905 0.673887
0.365731 -0.365731 0.855851
2.93301 -2.93301 2.93301
1.46917 -2.97747 2.97747
0.57735 -0.57735 0.57735
0.302905 -0.673887 0.673887
1.49339 -1.49339 3.05177
0 -1.51049 3.10595
0.365731 -0.365731 0.855851
0 -0.382683 0.92388
1.46917 -2.97747 2.97747
0 -3.01006 3.01006
0.302905 -0.673887 0.673887
0 -0.707107 0.707107
0 -5.55112e-17 5.35093
-2.6565 -4.16334e-17 5.33197
0 -2.77556e-17 3.17546
-1.51049 -2.08167e-17 3.10595
0 -2.6565 5.33197
-2.65042 -2.65042 5.3164
0 -1.51049 3.10595
[...]
POINT_DATA 3072
VECTORS velocity double
-0.0346088 -0.0346106 0.957848
-0.0299418 -0.0360555 0.91753
-0.0166932 -0.0166971 0.918124
-0.0129295 -0.0231481 0.880141
-0.0360535 -0.0299441 0.917533
-0.0389156 -0.038918 0.865373
-0.023144 -0.0129335 0.880144
-0.0218344 -0.0218384 0.813975
-0.0299418 -0.0360555 0.91753
2.51001e-06 -0.0389365 0.895253
-0.0129295 -0.0231481 0.880141
2.86099e-06 -0.0277973 0.8615
-0.0389156 -0.038918 0.865373
2.40861e-06 -0.0514194 0.82802
-0.0218344 -0.0218384 0.813975
2.74827e-06 -0.0291446 0.774071
-0.0166932 -0.0166971 0.918124
-0.0129295 -0.0231481 0.880141
-0.0119046 -0.0119103 0.862418
-0.0117271 -0.0256843 0.823691
-0.023144 -0.0129335 0.880144
-0.0218344 -0.0218384 0.813975
-0.0256788 -0.0117327 0.823693
-0.0279361 -0.0279416 0.751383
-0.0129295 -0.0231481 0.880141
2.86099e-06 -0.0277973 0.8615
-0.0117271 -0.0256843 0.823691
2.98841e-06 -0.0332831 0.805555
-0.0218344 -0.0218384 0.813975
2.74827e-06 -0.0291446 0.774071
-0.0279361 -0.0279416 0.751383
2.77032e-06 -0.0406785 0.70919
-0.0360535 -0.0299441 0.917533
-0.0389156 -0.038918 0.865373
-0.023144 -0.0129335 0.880144
-0.0218344 -0.0218384 0.813975
-0.0389338 -5.75641e-07 0.895259
-0.0514167 -5.8433e-07 0.828023
-0.0277934 -1.40619e-06 0.861504
-0.0291405 -1.54345e-06 0.774074
-0.0389156 -0.038918 0.865373
2.40861e-06 -0.0514194 0.82802
-0.0218344 -0.0218384 0.813975
2.74827e-06 -0.0291446 0.774071
-0.0514167 -5.8433e-07 0.828023
2.43199e-06 -5.12707e-07 0.770554
-0.0291405 -1.54345e-06 0.774074
2.85836e-06 -1.49925e-06 0.714906
-0.023144 -0.0129335 0.880144
-0.0218344 -0.0218384 0.813975
-0.0256788 -0.0117327 0.823693
-0.0279361 -0.0279416 0.751383
-0.0277934 -1.40619e-06 0.861504
-0.0291405 -1.54345e-06 0.774074
-0.0332778 -2.63697e-06 0.805559
-0.040673 -2.9083e-06 0.709192
-0.0218344 -0.0218384 0.813975
2.74827e-06 -0.0291446 0.774071
-0.0279361 -0.0279416 0.751383
2.77032e-06 -0.0406785 0.70919
-0.0291405 -1.54345e-06 0.774074
2.85836e-06 -1.49925e-06 0.714906
-0.040673 -2.9083e-06 0.709192
2.95088e-06 -2.87836e-06 0.642766
2.51001e-06 -0.0389365 0.895253
0.029947 -0.036056 0.917528
2.86099e-06 -0.0277973 0.8615
0.0129353 -0.0231478 0.880139
2.40861e-06 -0.0514194 0.82802
0.038921 -0.0389182 0.86537
2.74827e-06 -0.0291446 0.774071
0.0218401 -0.0218381 0.813972
0.029947 -0.036056 0.917528
0.0346138 -0.0346116 0.957846
0.0129353 -0.0231478 0.880139
0.0166986 -0.016697 0.918121
0.038921 -0.0389182 0.86537
0.036059 -0.0299449 0.917529
0.0218401 -0.0218381 0.813972
0.0231501 -0.0129337 0.880141
2.86099e-06 -0.0277973 0.8615
0.0129353 -0.0231478 0.880139
2.98841e-06 -0.0332831 0.805555
0.0117331 -0.0256835 0.823689
2.74827e-06 -0.0291446 0.774071
0.0218401 -0.0218381 0.813972
2.77032e-06 -0.0406785 0.70919
0.0279418 -0.0279409 0.751381
0.0129353 -0.0231478 0.880139
0.0166986 -0.016697 0.918121
0.0117331 -0.0256835 0.823689
0.0119105 -0.0119094 0.862415
0.0218401 -0.0218381 0.813972
0.0231501 -0.0129337 0.880141
0.0279418 -0.0279409 0.751381
0.025685 -0.0117322 0.82369
2.40861e-06 -0.0514194 0.82802
0.038921 -0.0389182 0.86537
2.74827e-06 -0.0291446 0.774071
0.0218401 -0.0218381 0.813972
2.43199e-06 -5.12707e-07 0.770554
0.0514226 -4.32898e-07 0.828022
2.85836e-06 -1.49925e-06 0.714906
0.0291466 -1.37918e-06 0.774072
0.038921 -0.0389182 0.86537
0.036059 -0.0299449 0.917529
0.0218401 -0.0218381 0.813972
0.0231501 -0.0129337 0.880141
0.0514226 -4.32898e-07 0.828022
0.0389397 -5.2697e-07 0.895256
0.0291466 -1.37918e-06 0.774072
0.0277998 -1.48538e-06 0.861502
2.74827e-06 -0.0291446 0.774071
0.0218401 -0.0218381 0.813972
2.77032e-06 -0.0406785 0.70919
0.0279418 -0.0279409 0.751381
2.85836e-06 -1.49925e-06 0.714906
0.0291466 -1.37918e-06 0.774072
2.95088e-06 -2.87836e-06 0.642766
0.0406792 -2.56066e-06 0.70919
0.0218401 -0.0218381 0.813972
0.0231501 -0.0129337 0.880141
0.0279418 -0.0279409 0.751381
0.025685 -0.0117322 0.82369
0.0291466 -1.37918e-06 0.774072
0.0277998 -1.48538e-06 0.861502
0.0406792 -2.56066e-06 0.70919
0.0332844 -2.40887e-06 0.805556
-0.0119046 -0.0119103 0.862418
-0.0117271 -0.0256843 0.823691
-0.0295105 -0.029517 0.746052
-0.0322149 -0.0605646 0.705306
-0.0256788 -0.0117327 0.823693
-0.0279361 -0.0279416 0.751383
-0.0605582 -0.0322219 0.705306
-0.0697812 -0.0697881 0.600698
-0.0117271 -0.0256843 0.823691
2.98841e-06 -0.0332831 0.805555
-0.0322149 -0.0605646 0.705306
3.04624e-06 -0.075759 0.68025
-0.0279361 -0.0279416 0.751383
2.77032e-06 -0.0406785 0.70919
-0.0697812 -0.0697881 0.600698
2.75746e-06 -0.0897283 0.533994
-0.0295105 -0.029517 0.746052
-0.0322149 -0.0605646 0.705306
0 0 0
0 0 0
-0.0605582 -0.0322219 0.705306
-0.0697812 -0.0697881 0.600698
0 0 0
0 0 0
-0.0322149 -0.0605646 0.705306
3.04624e-06 -0.075759 0.68025
0 0 0
0 0 0
-0.0697812 -0.0697881 0.600698
2.75746e-06 -0.0897283 0.533994
0 0 0
0 0 0
-0.0256788 -0.0117327 0.823693
-0.0279361 -0.0279416 0.751383
-0.0605582 -0.0322219 0.705306
-0.0697812 -0.0697881 0.600698
-0.0332778 -2.63697e-06 0.805559
-0.040673 -2.9083e-06 0.709192
-0.075753 -3.99306e-06 0.680252
-0.089722 -4.17035e-06 0.533994
-0.0279361 -0.0279416 0.751383
2.77032e-06 -0.0406785 0.70919
-0.0697812 -0.0697881 0.600698
2.75746e-06 -0.0897283 0.533994
-0.040673 -2.9083e-06 0.709192
2.95088e-06 -2.87836e-06 0.642766
-0.089722 -4.17035e-06 0.533994
2.809e-06 -3.89383e-06 0.441289
-0.0605582 -0.0322219 0.705306
-0.0697812 -0.0697881 0.600698
0 0 0
0 0 0
-0.075753 -3.99306e-06 0.680252
-0.089722 -4.17035e-06 0.533994
0 0 0
0 0 0
-0.0697812 -0.0697881 0.600698
2.75746e-06 -0.0897283 0.533994
0 0 0
0 0 0
-0.089722 -4.17035e-06 0.533994
2.809e-06 -3.89383e-06 0.441289
0 0 0
0 0 0
2.98841e-06 -0.0332831 0.805555
0.0117331 -0.0256835 0.823689
3.04624e-06 -0.075759 0.68025
0.0322207 -0.0605633 0.705305
2.77032e-06 -0.0406785 0.70919
0.0279418 -0.0279409 0.751381
2.75746e-06 -0.0897283 0.533994
0.0697867 -0.0697871 0.600697
0.0117331 -0.0256835 0.823689
0.0119105 -0.0119094 0.862415
0.0322207 -0.0605633 0.705305
0.029516 -0.0295155 0.74605
0.0279418 -0.0279409 0.751381
0.025685 -0.0117322 0.82369
0.0697867 -0.0697871 0.600697
0.0605635 -0.0322208 0.705305
3.04624e-06 -0.075759 0.68025
0.0322207 -0.0605633 0.705305
0 0 0
0 0 0
2.75746e-06 -0.0897283 0.533994
0.0697867 -0.0697871 0.600697
0 0 0
0 0 0
0.0322207 -0.0605633 0.705305
0.029516 -0.0295155 0.74605
0 0 0
0 0 0
0.0697867 -0.0697871 0.600697
0.0605635 -0.0322208 0.705305
0 0 0
0 0 0
2.77032e-06 -0.0406785 0.70919
0.0279418 -0.0279409 0.751381
2.75746e-06 -0.0897283 0.533994
0.0697867 -0.0697871 0.600697
2.95088e-06 -2.87836e-06 0.642766
0.0406792 -2.56066e-06 0.70919
2.809e-06 -3.89383e-06 0.441289
0.0897277 -3.74413e-06 0.533994
0.0279418 -0.0279409 0.751381
0.025685 -0.0117322 0.82369
0.0697867 -0.0697871 0.600697
0.0605635 -0.0322208 0.705305
0.0406792 -2.56066e-06 0.70919
0.0332844 -2.40887e-06 0.805556
0.0897277 -3.74413e-06 0.533994
0.0757589 -3.54627e-06 0.68025
2.75746e-06 -0.0897283 0.533994
0.0697867 -0.0697871 0.600697
0 0 0
0 0 0
2.809e-06 -3.89383e-06 0.441289
0.0897277 -3.74413e-06 0.533994
0 0 0
0 0 0
0.0697867 -0.0697871 0.600697
0.0605635 -0.0322208 0.705305
0 0 0
0 0 0
0.0897277 -3.74413e-06 0.533994
0.0757589 -3.54627e-06 0.68025
0 0 0
0 0 0
-0.0389338 -5.75641e-07 0.895259
-0.0514167 -5.8433e-07 0.828023
-0.0277934 -1.40619e-06 0.861504
-0.0291405 -1.54345e-06 0.774074
-0.0360526 0.029943 0.917535
-0.0389149 0.0389173 0.865376
-0.0231437 0.0129307 0.880146
-0.0218338 0.0218357 0.813977
-0.0514167 -5.8433e-07 0.828023
2.43199e-06 -5.12707e-07 0.770554
-0.0291405 -1.54345e-06 0.774074
2.85836e-06 -1.49925e-06 0.714906
-0.0389149 0.0389173 0.865376
2.78934e-06 0.0514192 0.828024
-0.0218338 0.0218357 0.813977
3.12342e-06 0.0291422 0.774074
-0.0277934 -1.40619e-06 0.861504
-0.0291405 -1.54345e-06 0.774074
-0.0332778 -2.63697e-06 0.805559
-0.040673 -2.9083e-06 0.709192
-0.0231437 0.0129307 0.880146
-0.0218338 0.0218357 0.813977
-0.0256782 0.0117275 0.823694
-0.0279353 0.0279362 0.751384
-0.0291405 -1.54345e-06 0.774074
2.85836e-06 -1.49925e-06 0.714906
-0.040673 -2.9083e-06 0.709192
2.95088e-06 -2.87836e-06 0.642766
-0.0218338 0.0218357 0.813977
3.12342e-06 0.0291422 0.774074
-0.0279353 0.0279362 0.751384
3.29523e-06 0.0406734 0.709191
-0.0360526 0.029943 0.917535
-0.0389149 0.0389173 0.865376
-0.0231437 0.0129307 0.880146
-0.0218338 0.0218357 0.813977
-0.0346078 0.0346094 0.957853
-0.0299414 0.0360547 0.917536
-0.0166929 0.0166938 0.918128
-0.0129293 0.0231456 0.880147
-0.0389149 0.0389173 0.865376
2.78934e-06 0.0514192 0.828024
-0.0218338 0.0218357 0.813977
3.12342e-06 0.0291422 0.774074
-0.0299414 0.0360547 0.917536
2.92969e-06 0.0389358 0.89526
-0.0129293 0.0231456 0.880147
3.27003e-06 0.0277954 0.861505
-0.0231437 0.0129307 0.880146
-0.0218338 0.0218357 0.813977
-0.0256782 0.0117275 0.823694
-0.0279353 0.0279362 0.751384
-0.0166929 0.0166938 0.918128
-0.0129293 0.0231456 0.880147
-0.0119043 0.0119048 0.862421
-0.0117265 0.0256796 0.823694
-0.0218338 0.0218357 0.813977
3.12342e-06 0.0291422 0.774074
-0.0279353 0.0279362 0.751384
3.29523e-06 0.0406734 0.709191
-0.0129293 0.0231456 0.880147
3.27003e-06 0.0277954 0.861505
-0.0117265 0.0256796 0.823694
3.51932e-06 0.0332789 0.805559
2.43199e-06 -5.12707e-07 0.770554
0.0514226 -4.32898e-07 0.828022
2.85836e-06 -1.49925e-06 0.714906
0.0291466 -1.37918e-06 0.774072
2.78934e-06 0.0514192 0.828024
0.0389211 0.0389174 0.865374
3.12342e-06 0.0291422 0.774074
0.0218402 0.0218356 0.813976
0.0514226 -4.32898e-07 0.828022
0.0389397 -5.2697e-07 0.895256
0.0291466 -1.37918e-06 0.774072
0.0277998 -1.48538e-06 0.861502
0.0389211 0.0389174 0.865374
0.0360589 0.0299434 0.917533
0.0218402 0.0218356 0.813976
0.0231504 0.0129308 0.880144
2.85836e-06 -1.49925e-06 0.714906
0.0291466 -1.37918e-06 0.774072
2.95088e-06 -2.87836e-06 0.642766
0.0406792 -2.56066e-06 0.70919
3.12342e-06 0.0291422 0.774074
0.0218402 0.0218356 0.813976
3.29523e-06 0.0406734 0.709191
0.0279421 0.0279362 0.751383
0.0291466 -1.37918e-06 0.774072
0.0277998 -1.48538e-06 0.861502
0.0406792 -2.56066e-06 0.70919
0.0332844 -2.40887e-06 0.805556
0.0218402 0.0218356 0.813976
0.0231504 0.0129308 0.880144
0.0279421 0.0279362 0.751383
0.0256851 0.0117275 0.823692
2.78934e-06 0.0514192 0.828024
0.0389211 0.0389174 0.865374
3.12342e-06 0.0291422 0.774074
0.0218402 0.0218356 0.813976
2.92969e-06 0.0389358 0.89526
0.0299477 0.0360547 0.917534
3.27003e-06 0.0277954 0.861505
0.0129359 0.0231455 0.880145
0.0389211 0.0389174 0.865374
0.0360589 0.0299434 0.917533
0.0218402 0.0218356 0.813976
0.0231504 0.0129308 0.880144
0.0299477 0.0360547 0.917534
0.0346144 0.0346097 0.957851
0.0129359 0.0231455 0.880145
0.0166994 0.016694 0.918127
3.12342e-06 0.0291422 0.774074
0.0218402 0.0218356 0.813976
3.29523e-06 0.0406734 0.709191
0.0279421 0.0279362 0.751383
3.27003e-06 0.0277954 0.861505
0.0129359 0.0231455 0.880145
3.51932e-06 0.0332789 0.805559
0.0117336 0.0256794 0.823693
0.0218402 0.0218356 0.813976
0.0231504 0.0129308 0.880144
0.0279421 0.0279362 0.751383
0.0256851 0.0117275 0.823692
0.0129359 0.0231455 0.880145
0.0166994 0.016694 0.918127
0.0117336 0.0256794 0.823693
0.011911 0.011905 0.862419
-0.0332778 -2.63697e-06 0.805559
-0.040673 -2.9083e-06 0.709192
-0.075753 -3.99306e-06 0.680252
-0.089722 -4.17035e-06 0.533994
-0.0256782 0.0117275 0.823694
-0.0279353 0.0279362 0.751384
-0.0605575 0.0322141 0.705307
-0.0697808 0.0697802 0.600698
-0.040673 -2.9083e-06 0.709192
2.95088e-06 -2.87836e-06 0.642766
-0.089722 -4.17035e-06 0.533994
2.809e-06 -3.89383e-06 0.441289
-0.0279353 0.0279362 0.751384
3.29523e-06 0.0406734 0.709191
-0.0697808 0.0697802 0.600698
3.23481e-06 0.089721 0.533994
-0.075753 -3.99306e-06 0.680252
-0.089722 -4.17035e-06 0.533994
0 0 0
0 0 0
-0.0605575 0.0322141 0.705307
-0.0697808 0.0697802 0.600698
0 0 0
0 0 0
-0.089722 -4.17035e-06 0.533994
2.809e-06 -3.89383e-06 0.441289
0 0 0
0 0 0
-0.0697808 0.0697802 0.600698
3.23481e-06 0.089721 0.533994
0 0 0
0 0 0
-0.0256782 0.0117275 0.823694
-0.0279353 0.0279362 0.751384
-0.0605575 0.0322141 0.705307
-0.0697808 0.0697802 0.600698
-0.0119043 0.0119048 0.862421
-0.0117265 0.0256796 0.823694
-0.0295093 0.0295097 0.746053
-0.0322141 0.0605575 0.705307
-0.0279353 0.0279362 0.751384
3.29523e-06 0.0406734 0.709191
-0.0697808 0.0697802 0.600698
3.23481e-06 0.089721 0.533994
-0.0117265 0.0256796 0.823694
3.51932e-06 0.0332789 0.805559
-0.0322141 0.0605575 0.705307
3.61369e-06 0.0757525 0.680251
-0.0605575 0.0322141 0.705307
-0.0697808 0.0697802 0.600698
0 0 0
0 0 0
-0.0295093 0.0295097 0.746053
-0.0322141 0.0605575 0.705307
0 0 0
0 0 0
-0.0697808 0.0697802 0.600698
3.23481e-06 0.089721 0.533994
0 0 0
0 0 0
-0.0322141 0.0605575 0.705307
3.61369e-06 0.0757525 0.680251
0 0 0
0 0 0
2.95088e-06 -2.87836e-06 0.642766
0.0406792 -2.56066e-06 0.70919
2.809e-06 -3.89383e-06 0.441289
0.0897277 -3.74413e-06 0.533994
3.29523e-06 0.0406734 0.709191
0.0279421 0.0279362 0.751383
3.23481e-06 0.089721 0.533994
0.0697872 0.06978 0.600697
0.0406792 -2.56066e-06 0.70919
0.0332844 -2.40887e-06 0.805556
0.0897277 -3.74413e-06 0.533994
0.0757589 -3.54627e-06 0.68025
0.0279421 0.0279362 0.751383
0.0256851 0.0117275 0.823692
0.0697872 0.06978 0.600697
0.060564 0.0322139 0.705305
2.809e-06 -3.89383e-06 0.441289
0.0897277 -3.74413e-06 0.533994
0 0 0
0 0 0
3.23481e-06 0.089721 0.533994
0.0697872 0.06978 0.600697
0 0 0
0 0 0
0.0897277 -3.74413e-06 0.533994
0.0757589 -3.54627e-06 0.68025
0 0 0
0 0 0
0.0697872 0.06978 0.600697
0.060564 0.0322139 0.705305
0 0 0
0 0 0
3.29523e-06 0.0406734 0.709191
0.0279421 0.0279362 0.751383
3.23481e-06 0.089721 0.533994
0.0697872 0.06978 0.600697
3.51932e-06 0.0332789 0.805559
0.0117336 0.0256794 0.823693
3.61369e-06 0.0757525 0.680251
0.0322213 0.0605572 0.705306
0.0279421 0.0279362 0.751383
0.0256851 0.0117275 0.823692
0.0697872 0.06978 0.600697
0.060564 0.0322139 0.705305
0.0117336 0.0256794 0.823693
0.011911 0.011905 0.862419
0.0322213 0.0605572 0.705306
0.0295164 0.0295094 0.746051
3.23481e-06 0.089721 0.533994
0.0697872 0.06978 0.600697
0 0 0
0 0 0
3.61369e-06 0.0757525 0.680251
0.0322213 0.0605572 0.705306
0 0 0
0 0 0
0.0697872 0.06978 0.600697
0.060564 0.0322139 0.705305
0 0 0
0 0 0
0.0322213 0.0605572 0.705306
0.0295164 0.0295094 0.746051
0 0 0
0 0 0
0 0 1
0 0 1
0.0403143 0.0403115 0.991542
0.0602536 0.0256608 0.99082
0 0 1
0 0 1
0.0256641 0.0602509 0.990819
0.0444238 0.0444204 0.979509
0 0 1
0 0 1
0.0602536 0.0256608 0.99082
0.0726475 -1.40627e-06 0.989686
0 0 1
0 0 1
0.0444238 0.0444204 0.979509
0.0573958 -1.23997e-06 0.970212
0.0403143 0.0403115 0.991542
0.0602536 0.0256608 0.99082
0.0652848 0.0652791 0.961756
0.0899571 0.0408557 0.946016
0.0256641 0.0602509 0.990819
0.0444238 0.0444204 0.979509
0.0408617 0.0899513 0.946015
0.0634185 0.0634125 0.902848
0.0602536 0.0256608 0.99082
0.0726475 -1.40627e-06 0.989686
0.0899571 0.0408557 0.946016
0.102076 -2.53782e-06 0.93685
0.0444238 0.0444204 0.979509
0.0573958 -1.23997e-06 0.970212
0.0634185 0.0634125 0.902848
0.0790697 -2.52657e-06 0.872219
0 0 1
0 0 1
0.0256641 0.0602509 0.990819
0.0444238 0.0444204 0.979509
0 0 1
0 0 1
1.84954e-06 0.0726452 0.989686
1.96809e-06 0.0573924 0.970212
0 0 1
0 0 1
0.0444238 0.0444204 0.979509
0.0573958 -1.23997e-06 0.970212
0 0 1
0 0 1
1.96809e-06 0.0573924 0.970212
1.95225e-06 -1.51736e-06 0.951164
0.0256641 0.0602509 0.990819
0.0444238 0.0444204 0.979509
0.0408617 0.0899513 0.946015
0.0634185 0.0634125 0.902848
1.84954e-06 0.0726452 0.989686
1.96809e-06 0.0573924 0.970212
3.25786e-06 0.102071 0.936849
3.32272e-06 0.0790637 0.872217
0.0444238 0.0444204 0.979509
0.0573958 -1.23997e-06 0.970212
0.0634185 0.0634125 0.902848
0.0790697 -2.52657e-06 0.872219
1.96809e-06 0.0573924 0.970212
1.95225e-06 -1.51736e-06 0.951164
3.32272e-06 0.0790637 0.872217
3.50912e-06 -2.55327e-06 0.817803
0 0 1
0 0 1
0.0726475 -1.40627e-06 0.989686
0.0602528 -0.0256634 0.99082
0 0 1
0 0 1
0.0573958 -1.23997e-06 0.970212
0.044423 -0.0444227 0.979509
0 0 1
0 0 1
0.0602528 -0.0256634 0.99082
0.0403135 -0.0403141 0.991542
0 0 1
0 0 1
0.044423 -0.0444227 0.979509
0.0256632 -0.0602531 0.99082
0.0726475 -1.40627e-06 0.989686
0.0602528 -0.0256634 0.99082
0.102076 -2.53782e-06 0.93685
0.0899563 -0.0408605 0.946016
0.0573958 -1.23997e-06 0.970212
0.044423 -0.0444227 0.979509
0.0790697 -2.52657e-06 0.872219
0.0634179 -0.0634171 0.902849
0.0602528 -0.0256634 0.99082
0.0403135 -0.0403141 0.991542
0.0899563 -0.0408605 0.946016
0.0652839 -0.0652838 0.961757
0.044423 -0.0444227 0.979509
0.0256632 -0.0602531 0.99082
0.0634179 -0.0634171 0.902849
0.0408609 -0.0899557 0.946016
0 0 1
0 0 1
0.0573958 -1.23997e-06 0.970212
0.044423 -0.0444227 0.979509
0 0 1
0 0 1
1.95225e-06 -1.51736e-06 0.951164
1.60869e-06 -0.057395 0.970212
0 0 1
0 0 1
0.044423 -0.0444227 0.979509
0.0256632 -0.0602531 0.99082
0 0 1
0 0 1
1.60869e-06 -0.057395 0.970212
1.26853e-06 -0.0726472 0.989686
0.0573958 -1.23997e-06 0.970212
0.044423 -0.0444227 0.979509
0.0790697 -2.52657e-06 0.872219
0.0634179 -0.0634171 0.902849
1.95225e-06 -1.51736e-06 0.951164
1.60869e-06 -0.057395 0.970212
3.50912e-06 -2.55327e-06 0.817803
3.1137e-06 -0.0790686 0.872218
0.044423 -0.0444227 0.979509
0.0256632 -0.0602531 0.99082
0.0634179 -0.0634171 0.902849
0.0408609 -0.0899557 0.946016
1.60869e-06 -0.057395 0.970212
1.26853e-06 -0.0726472 0.989686
3.1137e-06 -0.0790686 0.872218
2.63723e-06 -0.102075 0.93685
0.0652848 0.0652791 0.961756
0.0899571 0.0408557 0.946016
0.0731996 0.073192 0.829301
0.107692 0.0551928 0.795243
0.0408617 0.0899513 0.946015
0.0634185 0.0634125 0.902848
0.0552007 0.107684 0.795242
0.0961484 0.0961404 0.696773
0.0899571 0.0408557 0.946016
0.102076 -2.53782e-06 0.93685
0.107692 0.0551928 0.795243
0.124673 -3.4024e-06 0.772446
0.0634185 0.0634125 0.902848
0.0790697 -2.52657e-06 0.872219
0.0961484 0.0961404 0.696773
0.118219 -3.66341e-06 0.630782
0.0731996 0.073192 0.829301
0.107692 0.0551928 0.795243
0 0 0
0 0 0
0.0552007 0.107684 0.795242
0.0961484 0.0961404 0.696773
0 0 0
0 0 0
0.107692 0.0551928 0.795243
0.124673 -3.4024e-06 0.772446
0 0 0
0 0 0
0.0961484 0.0961404 0.696773
0.118219 -3.66341e-06 0.630782
0 0 0
0 0 0
0.0408617 0.0899513 0.946015
0.0634185 0.0634125 0.902848
0.0552007 0.107684 0.795242
0.0961484 0.0961404 0.696773
3.25786e-06 0.102071 0.936849
3.32272e-06 0.0790637 0.872217
4.28375e-06 0.124666 0.772444
4.29553e-06 0.118212 0.630781
0.0634185 0.0634125 0.902848
0.0790697 -2.52657e-06 0.872219
0.0961484 0.0961404 0.696773
0.118219 -3.66341e-06 0.630782
3.32272e-06 0.0790637 0.872217
3.50912e-06 -2.55327e-06 0.817803
4.29553e-06 0.118212 0.630781
4.30286e-06 -3.18225e-06 0.536877
0.0552007 0.107684 0.795242
0.0961484 0.0961404 0.696773
0 0 0
0 0 0
4.28375e-06 0.124666 0.772444
4.29553e-06 0.118212 0.630781
0 0 0
0 0 0
0.0961484 0.0961404 0.696773
0.118219 -3.66341e-06 0.630782
0 0 0
0 0 0
4.29553e-06 0.118212 0.630781
4.30286e-06 -3.18225e-06 0.536877
0 0 0
0 0 0
0.102076 -2.53782e-06 0.93685
0.0899563 -0.0408605 0.946016
0.124673 -3.4024e-06 0.772446
0.107691 -0.0551993 0.795244
0.0790697 -2.52657e-06 0.872219
0.0634179 -0.0634171 0.902849
0.118219 -3.66341e-06 0.630782
0.0961485 -0.0961472 0.696775
0.0899563 -0.0408605 0.946016
0.0652839 -0.0652838 0.961757
0.107691 -0.0551993 0.795244
0.073199 -0.0731986 0.829303
0.0634179 -0.0634171 0.902849
0.0408609 -0.0899557 0.946016
0.0961485 -0.0961472 0.696775
0.0551999 -0.10769 0.795244
0.124673 -3.4024e-06 0.772446
0.107691 -0.0551993 0.795244
0 0 0
0 0 0
0.118219 -3.66341e-06 0.630782
0.0961485 -0.0961472 0.696775
0 0 0
0 0 0
0.107691 -0.0551993 0.795244
0.073199 -0.0731986 0.829303
0 0 0
0 0 0
0.0961485 -0.0961472 0.696775
0.0551999 -0.10769 0.795244
0 0 0
0 0 0
0.0790697 -2.52657e-06 0.872219
0.0634179 -0.0634171 0.902849
0.118219 -3.66341e-06 0.630782
0.0961485 -0.0961472 0.696775
3.50912e-06 -2.55327e-06 0.817803
3.1137e-06 -0.0790686 0.872218
4.30286e-06 -3.18225e-06 0.536877
4.58766e-06 -0.118218 0.630782
0.0634179 -0.0634171 0.902849
0.0408609 -0.0899557 0.946016
0.0961485 -0.0961472 0.696775
0.0551999 -0.10769 0.795244
3.1137e-06 -0.0790686 0.872218
2.63723e-06 -0.102075 0.93685
4.58766e-06 -0.118218 0.630782