# vtk DataFile Version 3.0
#This file was generated by the deal.II library on 2014/11/24 at 23:16:17
ASCII
DATASET UNSTRUCTURED_GRID

POINTS 1312 double
15 0 0
15 3.75 0
11.5 0 0
11.4839 2.8576 0
15 3.75 0
15 7.5 0
11.4839 2.8576 0
11.4678 5.71521 0
11.5 0 0
11.4839 2.8576 0
8 0 0
7.96778 1.96521 0
11.4839 2.8576 0
11.4678 5.71521 0
7.96778 1.96521 0
7.93557 3.93042 0
15 7.5 0
15 11.25 0
11.4678 5.71521 0
11.4473 8.57099 0
15 11.25 0
15 15 0
11.4473 8.57099 0
11.4268 11.4268 0
11.4678 5.71521 0
11.4473 8.57099 0
7.93557 3.93042 0
7.89456 5.89199 0
11.4473 8.57099 0
11.4268 11.4268 0
7.89456 5.89199 0
7.85355 7.85355 0
15 15 0
11.25 15 0
11.4268 11.4268 0
8.57099 11.4473 0
11.25 15 0
7.5 15 0
8.57099 11.4473 0
5.71521 11.4678 0
11.4268 11.4268 0
8.57099 11.4473 0
7.85355 7.85355 0
5.89199 7.89456 0
8.57099 11.4473 0
5.71521 11.4678 0
5.89199 7.89456 0
3.93042 7.93557 0
7.5 15 0
3.75 15 0
5.71521 11.4678 0
2.8576 11.4839 0
3.75 15 0
0 15 0
2.8576 11.4839 0
0 11.5 0
5.71521 11.4678 0
2.8576 11.4839 0
3.93042 7.93557 0
1.96521 7.96778 0
2.8576 11.4839 0
0 11.5 0
1.96521 7.96778 0
0 8 0
0 -15 0
3.75 -15 0
0 -11.5 0
2.8576 -11.4839 0
3.75 -15 0
7.5 -15 0
2.8576 -11.4839 0
5.71521 -11.4678 0
0 -11.5 0
2.8576 -11.4839 0
0 -8 0
1.96521 -7.96778 0
2.8576 -11.4839 0
5.71521 -11.4678 0
1.96521 -7.96778 0
3.93042 -7.93557 0
7.5 -15 0
11.25 -15 0
5.71521 -11.4678 0
8.57099 -11.4473 0
11.25 -15 0
15 -15 0
8.57099 -11.4473 0
11.4268 -11.4268 0
5.71521 -11.4678 0
8.57099 -11.4473 0
3.93042 -7.93557 0
5.89199 -7.89456 0
8.57099 -11.4473 0
11.4268 -11.4268 0
5.89199 -7.89456 0
7.85355 -7.85355 0
15 -15 0
15 -11.25 0
11.4268 -11.4268 0
11.4473 -8.57099 0
15 -11.25 0
15 -7.5 0
11.4473 -8.57099 0
11.4678 -5.71521 0
11.4268 -11.4268 0
11.4473 -8.57099 0
7.85355 -7.85355 0
7.89456 -5.89199 0
11.4473 -8.57099 0
11.4678 -5.71521 0
7.89456 -5.89199 0
7.93557 -3.93042 0
15 -7.5 0
15 -3.75 0
11.4678 -5.71521 0
11.4839 -2.8576 0
15 -3.75 0
15 0 0
11.4839 -2.8576 0
11.5 0 0
11.4678 -5.71521 0
11.4839 -2.8576 0
7.93557 -3.93042 0
7.96778 -1.96521 0
11.4839 -2.8576 0
11.5 0 0
7.96778 -1.96521 0
8 0 0
8 0 0
7.98389 0.982604 0
6.25 0 0
6.23552 0.76134 0
7.98389 0.982604 0
7.96778 1.96521 0
6.23552 0.76134 0
6.22103 1.52268 0
6.25 0 0
6.23552 0.76134 0
4.5 0 0
4.48714 0.540075 0
6.23552 0.76134 0
6.22103 1.52268 0
4.48714 0.540075 0
4.47428 1.08015 0
7.96778 1.96521 0
7.95168 2.94781 0
6.22103 1.52268 0
6.20184 2.28308 0
7.95168 2.94781 0
7.93557 3.93042 0
6.20184 2.28308 0
6.18265 3.04348 0
6.22103 1.52268 0
6.20184 2.28308 0
4.47428 1.08015 0
4.452 1.61835 0
6.20184 2.28308 0
6.18265 3.04348 0
4.452 1.61835 0
4.42972 2.15655 0
4.5 0 0
4.48714 0.540075 0
2.75 0 0
2.74116 0.319046 0
4.48714 0.540075 0
4.47428 1.08015 0
2.74116 0.319046 0
2.72753 0.63762 0
2.75 0 0
2.74116 0.319046 0
1 0 0
0.995185 0.0980172 0
2.74116 0.319046 0
2.72753 0.63762 0
0.995185 0.0980172 0
0.980785 0.19509 0
7.93557 3.93042 0
7.91506 4.9112 0
6.18265 3.04348 0
6.15572 3.80068 0
7.91506 4.9112 0
7.89456 5.89199 0
6.15572 3.80068 0
6.12879 4.55788 0
6.18265 3.04348 0
6.15572 3.80068 0
4.42972 2.15655 0
4.39637 2.69016 0
6.15572 3.80068 0
6.12879 4.55788 0
4.39637 2.69016 0
4.36302 3.22378 0
7.89456 5.89199 0
7.87406 6.87277 0
6.12879 4.55788 0
6.09786 5.31241 0
7.87406 6.87277 0
7.85355 7.85355 0
6.09786 5.31241 0
6.06694 6.06694 0
6.12879 4.55788 0
6.09786 5.31241 0
4.36302 3.22378 0
4.32167 3.75205 0
6.09786 5.31241 0
6.06694 6.06694 0
4.32167 3.75205 0
4.28033 4.28033 0
7.85355 7.85355 0
6.87277 7.87406 0
6.06694 6.06694 0
5.31241 6.09786 0
6.87277 7.87406 0
5.89199 7.89456 0
5.31241 6.09786 0
4.55788 6.12879 0
6.06694 6.06694 0
5.31241 6.09786 0
4.28033 4.28033 0
3.75205 4.32167 0
5.31241 6.09786 0
4.55788 6.12879 0
3.75205 4.32167 0
3.22378 4.36302 0
5.89199 7.89456 0
4.9112 7.91506 0
4.55788 6.12879 0
3.80068 6.15572 0
4.9112 7.91506 0
3.93042 7.93557 0
3.80068 6.15572 0
3.04348 6.18265 0
4.55788 6.12879 0
3.80068 6.15572 0
3.22378 4.36302 0
2.69016 4.39637 0
3.80068 6.15572 0
3.04348 6.18265 0
2.69016 4.39637 0
2.15655 4.42972 0
3.93042 7.93557 0
2.94781 7.95168 0
3.04348 6.18265 0
2.28273 6.20007 0
2.94781 7.95168 0
1.96521 7.96778 0
2.28273 6.20007 0
1.52198 6.2175 0
3.04348 6.18265 0
2.28273 6.20007 0
2.15655 4.42972 0
1.61765 4.44847 0
2.28273 6.20007 0
1.52198 6.2175 0
1.61765 4.44847 0
1.07874 4.46722 0
1.96521 7.96778 0
0.982604 7.98389 0
1.52198 6.2175 0
0.760988 6.23375 0
0.982604 7.98389 0
0 8 0
0.760988 6.23375 0
0 6.25 0
1.52198 6.2175 0
0.760988 6.23375 0
1.07874 4.46722 0
0.539372 4.48361 0
0.760988 6.23375 0
0 6.25 0
0.539372 4.48361 0
0 4.5 0
0 -8 0
0.982604 -7.98389 0
0 -6.25 0
0.760988 -6.23375 0
0.982604 -7.98389 0
1.96521 -7.96778 0
0.760988 -6.23375 0
1.52198 -6.2175 0
0 -6.25 0
0.760988 -6.23375 0
0 -4.5 0
0.539372 -4.48361 0
0.760988 -6.23375 0
1.52198 -6.2175 0
0.539372 -4.48361 0
1.07874 -4.46722 0
1.96521 -7.96778 0
2.94781 -7.95168 0
1.52198 -6.2175 0
2.28273 -6.20007 0
2.94781 -7.95168 0
3.93042 -7.93557 0
2.28273 -6.20007 0
3.04348 -6.18265 0
1.52198 -6.2175 0
2.28273 -6.20007 0
1.07874 -4.46722 0
1.61765 -4.44847 0
2.28273 -6.20007 0
3.04348 -6.18265 0
1.61765 -4.44847 0
2.15655 -4.42972 0
3.93042 -7.93557 0
4.9112 -7.91506 0
3.04348 -6.18265 0
3.80068 -6.15572 0
4.9112 -7.91506 0
5.89199 -7.89456 0
3.80068 -6.15572 0
4.55788 -6.12879 0
3.04348 -6.18265 0
3.80068 -6.15572 0
2.15655 -4.42972 0
2.69016 -4.39637 0
3.80068 -6.15572 0
4.55788 -6.12879 0
2.69016 -4.39637 0
3.22378 -4.36302 0
5.89199 -7.89456 0
6.87277 -7.87406 0
4.55788 -6.12879 0
5.31241 -6.09786 0
6.87277 -7.87406 0
7.85355 -7.85355 0
5.31241 -6.09786 0
6.06694 -6.06694 0
4.55788 -6.12879 0
5.31241 -6.09786 0
3.22378 -4.36302 0
3.75205 -4.32167 0
5.31241 -6.09786 0
6.06694 -6.06694 0
3.75205 -4.32167 0
4.28033 -4.28033 0
7.85355 -7.85355 0
7.87406 -6.87277 0
6.06694 -6.06694 0
6.09786 -5.31241 0
7.87406 -6.87277 0
7.89456 -5.89199 0
6.09786 -5.31241 0
6.12879 -4.55788 0
6.06694 -6.06694 0
6.09786 -5.31241 0
4.28033 -4.28033 0
4.32167 -3.75205 0
6.09786 -5.31241 0
6.12879 -4.55788 0
4.32167 -3.75205 0
4.36302 -3.22378 0
7.89456 -5.89199 0
7.91506 -4.9112 0
6.12879 -4.55788 0
6.15572 -3.80068 0
7.91506 -4.9112 0
7.93557 -3.93042 0
6.15572 -3.80068 0
6.18265 -3.04348 0
6.12879 -4.55788 0
6.15572 -3.80068 0
4.36302 -3.22378 0
4.39637 -2.69016 0
6.15572 -3.80068 0
6.18265 -3.04348 0
4.39637 -2.69016 0
4.42972 -2.15655 0
7.93557 -3.93042 0
7.95168 -2.94781 0
6.18265 -3.04348 0
6.20184 -2.28308 0
7.95168 -2.94781 0
7.96778 -1.96521 0
6.20184 -2.28308 0
6.22103 -1.52268 0
6.18265 -3.04348 0
6.20184 -2.28308 0
4.42972 -2.15655 0
4.452 -1.61835 0
6.20184 -2.28308 0
6.22103 -1.52268 0
4.452 -1.61835 0
4.47428 -1.08015 0
7.96778 -1.96521 0
7.98389 -0.982604 0
6.22103 -1.52268 0
6.23552 -0.76134 0
7.98389 -0.982604 0
8 0 0
6.23552 -0.76134 0
6.25 0 0
6.22103 -1.52268 0
6.23552 -0.76134 0
4.47428 -1.08015 0
4.48714 -0.540075 0
6.23552 -0.76134 0
6.25 0 0
4.48714 -0.540075 0
4.5 0 0
4.47428 -1.08015 0
4.48714 -0.540075 0
2.72753 -0.63762 0
2.74116 -0.319046 0
4.48714 -0.540075 0
4.5 0 0
2.74116 -0.319046 0
2.75 0 0
2.72753 -0.63762 0
2.74116 -0.319046 0
0.980785 -0.19509 0
0.995185 -0.0980172 0
2.74116 -0.319046 0
2.75 0 0
0.995185 -0.0980172 0
1 0 0
4.47428 1.08015 0
4.46314 1.34925 0
3.60091 0.858885 0
3.58957 1.07261 0
4.46314 1.34925 0
4.452 1.61835 0
3.58957 1.07261 0
3.57824 1.28633 0
3.60091 0.858885 0
3.58957 1.07261 0
2.72753 0.63762 0
2.716 0.795969 0
3.58957 1.07261 0
3.57824 1.28633 0
2.716 0.795969 0
2.70447 0.954317 0
4.452 1.61835 0
4.44086 1.88745 0
3.57824 1.28633 0
3.56575 1.49971 0
4.44086 1.88745 0
4.42972 2.15655 0
3.56575 1.49971 0
3.55326 1.71308 0
3.57824 1.28633 0
3.56575 1.49971 0
2.70447 0.954317 0
2.69064 1.11197 0
3.56575 1.49971 0
3.55326 1.71308 0
2.69064 1.11197 0
2.6768 1.26962 0
2.72753 0.63762 0
2.716 0.795969 0
1.85416 0.416355 0
1.84302 0.519474 0
2.716 0.795969 0
2.70447 0.954317 0
1.84302 0.519474 0
1.83071 0.622301 0
1.85416 0.416355 0
1.84302 0.519474 0
0.980785 0.19509 0
0.970031 0.24298 0
1.84302 0.519474 0
1.83071 0.622301 0
0.970031 0.24298 0
0.95694 0.290285 0
2.70447 0.954317 0
2.69064 1.11197 0
1.83071 0.622301 0
1.81609 0.724429 0
2.69064 1.11197 0
2.6768 1.26962 0
1.81609 0.724429 0
1.80034 0.82615 0
1.83071 0.622301 0
1.81609 0.724429 0
0.95694 0.290285 0
0.941544 0.33689 0
1.81609 0.724429 0
1.80034 0.82615 0
0.941544 0.33689 0
0.92388 0.382683 0
4.42972 2.15655 0
4.41305 2.42336 0
3.55326 1.71308 0
3.53551 1.92428 0
4.41305 2.42336 0
4.39637 2.69016 0
3.53551 1.92428 0
3.51776 2.13547 0
3.55326 1.71308 0
3.53551 1.92428 0
2.6768 1.26962 0
2.65797 1.4252 0
3.53551 1.92428 0
3.51776 2.13547 0
2.65797 1.4252 0
2.63915 1.58078 0
4.39637 2.69016 0
4.37969 2.95697 0
3.51776 2.13547 0
3.49894 2.3461 0
4.37969 2.95697 0
4.36302 3.22378 0
3.49894 2.3461 0
3.48013 2.55673 0
3.51776 2.13547 0
3.49894 2.3461 0
2.63915 1.58078 0
2.61819 1.73523 0
3.49894 2.3461 0
3.48013 2.55673 0
2.61819 1.73523 0
2.59724 1.88967 0
2.6768 1.26962 0
2.65797 1.4252 0
1.80034 0.82615 0
1.78098 0.926377 0
2.65797 1.4252 0
2.63915 1.58078 0
1.78098 0.926377 0
1.76053 1.02609 0
1.80034 0.82615 0
1.78098 0.926377 0
0.92388 0.382683 0
0.903989 0.427555 0
1.78098 0.926377 0
1.76053 1.02609 0
0.903989 0.427555 0
0.881921 0.471397 0
2.63915 1.58078 0
2.61819 1.73523 0
1.76053 1.02609 0
1.73796 1.12467 0
2.61819 1.73523 0
2.59724 1.88967 0
1.73796 1.12467 0
1.71436 1.22262 0
1.76053 1.02609 0
1.73796 1.12467 0
0.881921 0.471397 0
0.857729 0.514103 0
1.73796 1.12467 0
1.71436 1.22262 0
0.857729 0.514103 0
0.83147 0.55557 0
4.36302 3.22378 0
4.34234 3.48792 0
3.48013 2.55673 0
3.45732 2.76468 0
4.34234 3.48792 0
4.32167 3.75205 0
3.45732 2.76468 0
3.43451 2.97264 0
3.48013 2.55673 0
3.45732 2.76468 0
2.59724 1.88967 0
2.57229 2.04145 0
3.45732 2.76468 0
3.43451 2.97264 0
2.57229 2.04145 0
2.54734 2.19322 0
4.32167 3.75205 0
4.301 4.01619 0
3.43451 2.97264 0
3.41077 3.17983 0
4.301 4.01619 0
4.28033 4.28033 0
3.41077 3.17983 0
3.38702 3.38702 0
3.43451 2.97264 0
[...]
POINT_DATA 1312
VECTORS velocity double
0.0371499 0.937919 0
0.014585 0.923226 0
0.0329405 0.918968 0
0.00976169 0.906307 0
0.014585 0.923226 0
-0.000790317 0.910556 0
0.00976169 0.906307 0
-0.00509232 0.895685 0
0.0329405 0.918968 0
0.00976169 0.906307 0
0.0259255 0.892488 0
0.000512013 0.879384 0
0.00976169 0.906307 0
-0.00509232 0.895685 0
0.000512013 0.879384 0
-0.0155227 0.866366 0
-0.000790317 0.910556 0
-0.0110657 0.905546 0
-0.00509232 0.895685 0
-0.0115783 0.889567 0
-0.0110657 0.905546 0
-0.0235578 0.907182 0
-0.0115783 0.889567 0
-0.0155284 0.888023 0
-0.00509232 0.895685 0
-0.0115783 0.889567 0
-0.0155227 0.866366 0
-0.0211448 0.857654 0
-0.0115783 0.889567 0
-0.0155284 0.888023 0
-0.0211448 0.857654 0
-0.0207862 0.854271 0
-0.0235578 0.907182 0
-0.0273763 0.890695 0
-0.0155284 0.888023 0
-0.0176848 0.864824 0
-0.0273763 0.890695 0
-0.0281017 0.866773 0
-0.0176848 0.864824 0
-0.0171765 0.836682 0
-0.0155284 0.888023 0
-0.0176848 0.864824 0
-0.0207862 0.854271 0
-0.0256251 0.826649 0
-0.0176848 0.864824 0
-0.0171765 0.836682 0
-0.0256251 0.826649 0
-0.0257661 0.795439 0
-0.0281017 0.866773 0
-0.0189523 0.842502 0
-0.0171765 0.836682 0
-0.011303 0.811507 0
-0.0189523 0.842502 0
0.000279769 0.83176 0
-0.011303 0.811507 0
9.55709e-05 0.80097 0
-0.0171765 0.836682 0
-0.011303 0.811507 0
-0.0257661 0.795439 0
-0.0170313 0.768142 0
-0.011303 0.811507 0
9.55709e-05 0.80097 0
-0.0170313 0.768142 0
0.000102143 0.7571 0
0 1 0
0 1 0
-2.36459e-05 0.946633 0
0.0215581 0.951783 0
0 1 0
0 1 0
0.0215581 0.951783 0
0.0360064 0.963155 0
-2.36459e-05 0.946633 0
0.0215581 0.951783 0
-0.000109399 0.872111 0
0.0293972 0.880868 0
0.0215581 0.951783 0
0.0360064 0.963155 0
0.0293972 0.880868 0
0.049929 0.902542 0
0 1 0
0 1 0
0.0360064 0.963155 0
0.043302 0.973583 0
0 1 0
0 1 0
0.043302 0.973583 0
0.0482579 0.978819 0
0.0360064 0.963155 0
0.043302 0.973583 0
0.049929 0.902542 0
0.0605631 0.92538 0
0.043302 0.973583 0
0.0482579 0.978819 0
0.0605631 0.92538 0
0.0649569 0.942735 0
0 1 0
0.0530434 0.963478 0
0.0482579 0.978819 0
0.0667041 0.962887 0
0.0530434 0.963478 0
0.0655015 0.958112 0
0.0667041 0.962887 0
0.0681188 0.945374 0
0.0482579 0.978819 0
0.0667041 0.962887 0
0.0649569 0.942735 0
0.0699083 0.924444 0
0.0667041 0.962887 0
0.0681188 0.945374 0
0.0699083 0.924444 0
0.066416 0.911405 0
0.0655015 0.958112 0
0.0583193 0.948571 0
0.0681188 0.945374 0
0.0556712 0.931515 0
0.0583193 0.948571 0
0.0371499 0.937919 0
0.0556712 0.931515 0
0.0329405 0.918968 0
0.0681188 0.945374 0
0.0556712 0.931515 0
0.066416 0.911405 0
0.0510875 0.901932 0
0.0556712 0.931515 0
0.0329405 0.918968 0
0.0510875 0.901932 0
0.0259255 0.892488 0
0.0259255 0.892488 0
0.0124941 0.886267 0
0.0211226 0.866869 0
0.00551985 0.861061 0
0.0124941 0.886267 0
0.000512013 0.879384 0
0.00551985 0.861061 0
-0.00841213 0.854142 0
0.0211226 0.866869 0
0.00551985 0.861061 0
0.015526 0.818631 0
-0.00457112 0.813597 0
0.00551985 0.861061 0
-0.00841213 0.854142 0
-0.00457112 0.813597 0
-0.0216845 0.806102 0
0.000512013 0.879384 0
-0.00894383 0.872539 0
-0.00841213 0.854142 0
-0.0193596 0.846953 0
-0.00894383 0.872539 0
-0.0155227 0.866366 0
-0.0193596 0.846953 0
-0.026817 0.840262 0
-0.00841213 0.854142 0
-0.0193596 0.846953 0
-0.0216845 0.806102 0
-0.0360515 0.799024 0
-0.0193596 0.846953 0
-0.026817 0.840262 0
-0.0360515 0.799024 0
-0.0457537 0.791832 0
0.015526 0.818631 0
-0.00457112 0.813597 0
0.00875318 0.703115 0
-0.0202467 0.69705 0
-0.00457112 0.813597 0
-0.0216845 0.806102 0
-0.0202467 0.69705 0
-0.0406119 0.685522 0
0.00875318 0.703115 0
-0.0202467 0.69705 0
0 0 0
0 0 0
-0.0202467 0.69705 0
-0.0406119 0.685522 0
0 0 0
0 0 0
-0.0155227 0.866366 0
-0.0193884 0.861311 0
-0.026817 0.840262 0
-0.0311051 0.834658 0
-0.0193884 0.861311 0
-0.0211448 0.857654 0
-0.0311051 0.834658 0
-0.0327673 0.830587 0
-0.026817 0.840262 0
-0.0311051 0.834658 0
-0.0457537 0.791832 0
-0.05126 0.785538 0
-0.0311051 0.834658 0
-0.0327673 0.830587 0
-0.05126 0.785538 0
-0.0532058 0.781137 0
-0.0211448 0.857654 0
-0.0213653 0.85538 0
-0.0327673 0.830587 0
-0.032568 0.827968 0
-0.0213653 0.85538 0
-0.0207862 0.854271 0
-0.032568 0.827968 0
-0.0310931 0.826606 0
-0.0327673 0.830587 0
-0.032568 0.827968 0
-0.0532058 0.781137 0
-0.0526745 0.778429 0
-0.032568 0.827968 0
-0.0310931 0.826606 0
-0.0526745 0.778429 0
-0.0504858 0.777453 0
-0.0207862 0.854271 0
-0.0234973 0.84117 0
-0.0310931 0.826606 0
-0.0344958 0.811279 0
-0.0234973 0.84117 0
-0.0256251 0.826649 0
-0.0344958 0.811279 0
-0.0368791 0.794266 0
-0.0310931 0.826606 0
-0.0344958 0.811279 0
-0.0504858 0.777453 0
-0.0543722 0.757285 0
-0.0344958 0.811279 0
-0.0368791 0.794266 0
-0.0543722 0.757285 0
-0.0565955 0.735135 0
-0.0256251 0.826649 0
-0.0265748 0.811207 0
-0.0368791 0.794266 0
-0.0375829 0.776019 0
-0.0265748 0.811207 0
-0.0257661 0.795439 0
-0.0375829 0.776019 0
-0.035871 0.757549 0
-0.0368791 0.794266 0
-0.0375829 0.776019 0
-0.0565955 0.735135 0
-0.0563751 0.711386 0
-0.0375829 0.776019 0
-0.035871 0.757549 0
-0.0563751 0.711386 0
-0.0527022 0.687618 0
-0.0257661 0.795439 0
-0.0226811 0.780631 0
-0.035871 0.757549 0
-0.0311667 0.739957 0
-0.0226811 0.780631 0
-0.0170313 0.768142 0
-0.0311667 0.739957 0
-0.0231969 0.725361 0
-0.035871 0.757549 0
-0.0311667 0.739957 0
-0.0527022 0.687618 0
-0.0450784 0.66491 0
-0.0311667 0.739957 0
-0.0231969 0.725361 0
-0.0450784 0.66491 0
-0.0331179 0.646332 0
-0.0170313 0.768142 0
-0.00919598 0.760012 0
-0.0231969 0.725361 0
-0.0123972 0.715743 0
-0.00919598 0.760012 0
0.000102143 0.7571 0
-0.0123972 0.715743 0
2.98787e-05 0.71269 0
-0.0231969 0.725361 0
-0.0123972 0.715743 0
-0.0331179 0.646332 0
-0.0175498 0.634282 0
-0.0123972 0.715743 0
2.98787e-05 0.71269 0
-0.0175498 0.634282 0
2.27407e-05 0.630763 0
-0.000109399 0.872111 0
0.0154135 0.874314 0
-3.071e-05 0.801995 0
0.0177797 0.804666 0
0.0154135 0.874314 0
0.0293972 0.880868 0
0.0177797 0.804666 0
0.0338939 0.813564 0
-3.071e-05 0.801995 0
0.0177797 0.804666 0
-2.35756e-05 0.695062 0
0.0216307 0.698325 0
0.0177797 0.804666 0
0.0338939 0.813564 0
0.0216307 0.698325 0
0.041225 0.7101 0
0.0293972 0.880868 0
0.0410477 0.890916 0
0.0338939 0.813564 0
0.0470595 0.827074 0
0.0410477 0.890916 0
0.049929 0.902542 0
0.0470595 0.827074 0
0.056804 0.843213 0
0.0338939 0.813564 0
0.0470595 0.827074 0
0.041225 0.7101 0
0.0571116 0.728302 0
0.0470595 0.827074 0
0.056804 0.843213 0
0.0571116 0.728302 0
0.0685506 0.750514 0
0.049929 0.902542 0
0.0562661 0.914381 0
0.056804 0.843213 0
0.0633745 0.85975 0
0.0562661 0.914381 0
0.0605631 0.92538 0
0.0633745 0.85975 0
0.0673449 0.875705 0
0.056804 0.843213 0
0.0633745 0.85975 0
0.0685506 0.750514 0
0.075902 0.773419 0
0.0633745 0.85975 0
0.0673449 0.875705 0
0.075902 0.773419 0
0.0797112 0.796142 0
0.0605631 0.92538 0
0.0632866 0.934987 0
0.0673449 0.875705 0
0.0694635 0.890072 0
0.0632866 0.934987 0
0.0649569 0.942735 0
0.0694635 0.890072 0
0.0704143 0.902492 0
0.0673449 0.875705 0
0.0694635 0.890072 0
0.0797112 0.796142 0
0.0809582 0.816999 0
0.0694635 0.890072 0
0.0704143 0.902492 0
0.0809582 0.816999 0
0.0804532 0.835728 0
0.0649569 0.942735 0
0.0681336 0.932879 0
0.0704143 0.902492 0
0.0728568 0.894858 0
0.0681336 0.932879 0
0.0699083 0.924444 0
0.0728568 0.894858 0
0.0737467 0.888165 0
0.0704143 0.902492 0
0.0728568 0.894858 0
0.0804532 0.835728 0
0.0830498 0.82951 0
0.0728568 0.894858 0
0.0737467 0.888165 0
0.0830498 0.82951 0
0.0839226 0.825083 0
0.0699083 0.924444 0
0.0695012 0.917409 0
0.0737467 0.888165 0
0.0725738 0.882731 0
0.0695012 0.917409 0
0.066416 0.911405 0
0.0725738 0.882731 0
0.0686441 0.878812 0
0.0737467 0.888165 0
0.0725738 0.882731 0
0.0839226 0.825083 0
0.082182 0.822304 0
0.0725738 0.882731 0
0.0686441 0.878812 0
0.082182 0.822304 0
0.0767989 0.821378 0
0.066416 0.911405 0
0.0602825 0.906327 0
0.0686441 0.878812 0
0.0613708 0.875928 0
0.0602825 0.906327 0
0.0510875 0.901932 0
0.0613708 0.875928 0
0.0505272 0.873488 0
0.0686441 0.878812 0
0.0613708 0.875928 0
0.0767989 0.821378 0
0.0670964 0.821259 0
0.0613708 0.875928 0
0.0505272 0.873488 0
0.0670964 0.821259 0
0.0527187 0.820978 0
0.0510875 0.901932 0
0.039258 0.897559 0
0.0505272 0.873488 0
0.036652 0.870739 0
0.039258 0.897559 0
0.0259255 0.892488 0
0.036652 0.870739 0
0.0211226 0.866869 0
0.0505272 0.873488 0
0.036652 0.870739 0
0.0527187 0.820978 0
0.0355807 0.821056 0
0.036652 0.870739 0
0.0211226 0.866869 0
0.0355807 0.821056 0
0.015526 0.818631 0
0.0527187 0.820978 0
0.0355807 0.821056 0
0.0584459 0.694813 0
0.0378167 0.701768 0
0.0355807 0.821056 0
0.015526 0.818631 0
0.0378167 0.701768 0
0.00875318 0.703115 0
0.0584459 0.694813 0
0.0378167 0.701768 0
0 0 0
0 0 0
0.0378167 0.701768 0
0.00875318 0.703115 0
0 0 0
0 0 0
-0.0216845 0.806102 0
-0.0294371 0.802729 0
-0.0324324 0.76395 0
-0.0418918 0.760082 0
-0.0294371 0.802729 0
-0.0360515 0.799024 0
-0.0418918 0.760082 0
-0.0496179 0.755995 0
-0.0324324 0.76395 0
-0.0418918 0.760082 0
-0.0406119 0.685522 0
-0.0538766 0.68425 0
-0.0418918 0.760082 0
-0.0496179 0.755995 0
-0.0538766 0.68425 0
-0.0645586 0.68074 0
-0.0360515 0.799024 0
-0.0414854 0.795323 0
-0.0496179 0.755995 0
-0.0559395 0.751797 0
-0.0414854 0.795323 0
-0.0457537 0.791832 0
-0.0559395 0.751797 0
-0.060976 0.747954 0
-0.0496179 0.755995 0
-0.0559395 0.751797 0
-0.0645586 0.68074 0
-0.0737008 0.676955 0
-0.0559395 0.751797 0
-0.060976 0.747954 0
-0.0737008 0.676955 0
-0.0810255 0.672937 0
-0.0406119 0.685522 0
-0.0538766 0.68425 0
-0.0691936 0.526801 0
-0.0882998 0.523482 0
-0.0538766 0.68425 0
-0.0645586 0.68074 0
-0.0882998 0.523482 0
-0.10246 0.522244 0
-0.0691936 0.526801 0
-0.0882998 0.523482 0
0 0 0
0 0 0
-0.0882998 0.523482 0
-0.10246 0.522244 0
0 0 0
0 0 0
-0.0645586 0.68074 0
-0.0737008 0.676955 0
-0.10246 0.522244 0
-0.112649 0.517383 0
-0.0737008 0.676955 0
-0.0810255 0.672937 0
-0.112649 0.517383 0
-0.120708 0.512372 0
-0.10246 0.522244 0
-0.112649 0.517383 0
0 0 0
0 0 0
-0.112649 0.517383 0
-0.120708 0.512372 0
0 0 0
0 0 0
-0.0457537 0.791832 0
-0.0490055 0.788471 0
-0.060976 0.747954 0
-0.0649069 0.744215 0
-0.0490055 0.788471 0
-0.05126 0.785538 0
-0.0649069 0.744215 0
-0.0677002 0.740989 0
-0.060976 0.747954 0
-0.0649069 0.744215 0
-0.0810255 0.672937 0
-0.0867971 0.668676 0
-0.0649069 0.744215 0
-0.0677002 0.740989 0
-0.0867971 0.668676 0
-0.0909526 0.664866 0
-0.05126 0.785538 0
-0.0526162 0.783085 0
-0.0677002 0.740989 0
-0.069476 0.738256 0
-0.0526162 0.783085 0
-0.0532058 0.781137 0
-0.069476 0.738256 0
-0.0703165 0.736109 0
-0.0677002 0.740989 0
-0.069476 0.738256 0
-0.0909526 0.664866 0
-0.0937401 0.661472 0
-0.069476 0.738256 0
-0.0703165 0.736109 0
-0.0937401 0.661472 0
-0.0952797 0.658801 0
-0.0810255 0.672937 0
-0.0867971 0.668676 0
-0.120708 0.512372 0
-0.127096 0.506531 0
-0.0867971 0.668676 0
-0.0909526 0.664866 0
-0.127096 0.506531 0
-0.131973 0.501094 0
-0.120708 0.512372 0
-0.127096 0.506531 0
0 0 0
0 0 0
-0.127096 0.506531 0
-0.131973 0.501094 0
0 0 0
0 0 0
-0.0909526 0.664866 0
-0.0937401 0.661472 0
-0.131973 0.501094 0
-0.135478 0.495853 0
-0.0937401 0.661472 0
-0.0952797 0.658801 0
-0.135478 0.495853 0
-0.137549 0.491194 0
-0.131973 0.501094 0
-0.135478 0.495853 0
0 0 0
0 0 0
-0.135478 0.495853 0
-0.137549 0.491194 0
0 0 0
0 0 0
-0.0532058 0.781137 0
-0.053204 0.77954 0
-0.0703165 0.736109 0
-0.0704396 0.734307 0
-0.053204 0.77954 0
-0.0526745 0.778429 0
-0.0704396 0.734307 0
-0.0698823 0.733086 0
-0.0703165 0.736109 0
-0.0704396 0.734307 0
-0.0952797 0.658801 0
-0.0959219 0.656433 0
-0.0704396 0.734307 0
-0.0698823 0.733086 0
-0.0959219 0.656433 0
-0.0956779 0.654743 0
-0.0526745 0.778429 0
-0.0517275 0.777765 0
-0.0698823 0.733086 0
-0.0687962 0.732336 0
-0.0517275 0.777765 0
-0.0504858 0.777453 0
-0.0687962 0.732336 0
-0.0671936 0.732001 0
-0.0698823 0.733086 0
-0.0687962 0.732336 0
-0.0956779 0.654743 0
-0.0946649 0.653427 0
-0.0687962 0.732336 0
-0.0671936 0.732001 0
-0.0946649 0.653427 0
-0.0926278 0.652575 0
-0.0952797 0.658801 0
-0.0959219 0.656433 0
-0.137549 0.491194 0
-0.138325 0.486638 0
-0.0959219 0.656433 0
-0.0956779 0.654743 0
-0.138325 0.486638 0
-0.137571 0.48281 0
-0.137549 0.491194 0
-0.138325 0.486638 0
0 0 0
0 0 0
-0.138325 0.486638 0
-0.137571 0.48281 0
0 0 0
0 0 0
-0.0956779 0.654743 0
-0.0946649 0.653427 0
-0.137571 0.48281 0
-0.13523 0.479561 0
-0.0946649 0.653427 0
-0.0926278 0.652575 0
-0.13523 0.479561 0
-0.131044 0.477387 0
-0.137571 0.48281 0
-0.13523 0.479561 0
0 0 0
0 0 0
-0.13523 0.479561 0
-0.131044 0.477387 0
0 0 0
0 0 0
-0.0504858 0.777453 0
-0.0525779 0.767673 0
-0.0671936 0.732001 0
-0.0694057 0.720105 0
-0.0525779 0.767673 0
-0.0543722 0.757285 0
-0.0694057 0.720105 0
-0.0711686 0.707448 0
-0.0671936 0.732001 0
-0.0694057 0.720105 0
-0.0926278 0.652575 0
-0.0948663 0.637962 0
-0.0694057 0.720105 0
-0.0711686 0.707448 0
-0.0948663 0.637962 0
-0.0963842 0.62228 0
-0.0543722 0.757285 0
-0.0557453 0.746418 0
-0.0711686 0.707448 0
-0.0723747 0.694244 0
-0.0557453 0.746418 0
-0.0565955 0.735135 0
-0.0723747 0.694244 0
-0.0728962 0.680682 0
-0.0711686 0.707448 0
-0.0723747 0.694244 0
-0.0963842 0.62228 0
-0.0970805 0.605753 0
-0.0723747 0.694244 0
-0.0728962 0.680682 0
-0.0970805 0.605753 0
-0.0967674 0.588911 0
-0.0926278 0.652575 0
-0.0948663 0.637962 0
-0.131044 0.477387 0
-0.132739 0.458535 0
-0.0948663 0.637962 0
-0.0963842 0.62228 0
-0.132739 0.458535 0
-0.133223 0.439138 0
-0.131044 0.477387 0
-0.132739 0.458535 0
0 0 0
0 0 0
-0.132739 0.458535 0
-0.133223 0.439138 0
0 0 0
0 0 0
-0.0963842 0.62228 0
-0.0970805 0.605753 0
-0.133223 0.439138 0
-0.132415 0.419154 0
-0.0970805 0.605753 0
-0.0967674 0.588911 0
-0.132415 0.419154 0
-0.130143 0.39915 0
-0.133223 0.439138 0
-0.132415 0.419154 0
0 0 0
0 0 0
-0.132415 0.419154 0
-0.130143 0.39915 0
0 0 0
0 0 0
-0.0565955 0.735135 0
-0.0568632 0.723364 0
-0.0728962 0.680682 0
-0.0726983 0.666575 0
-0.0568632 0.723364 0
-0.0563751 0.711386 0
-0.0726983 0.666575 0
-0.0715565 0.65235 0
-0.0728962 0.680682 0
-0.0726983 0.666575 0
-0.0967674 0.588911 0
-0.0954854 0.5715 0
-0.0726983 0.666575 0
-0.0715565 0.65235 0
-0.0954854 0.5715 0
-0.0929928 0.554245 0
-0.0563751 0.711386 0
-0.0550201 0.699404 0
-0.0715565 0.65235 0
-0.0693672 0.638141 0
-0.0550201 0.699404 0
-0.0527022 0.687618 0
-0.0693672 0.638141 0
-0.0660096 0.624308 0
-0.0715565 0.65235 0
-0.0693672 0.638141 0
-0.0929928 0.554245 0
-0.0892666 0.537145 0
-0.0693672 0.638141 0
-0.0660096 0.624308 0
-0.0892666 0.537145 0
-0.0841628 0.520783 0
-0.0967674 0.588911 0
-0.0954854 0.5715 0
-0.130143 0.39915 0
-0.126503 0.37882 0
-0.0954854 0.5715 0
-0.0929928 0.554245 0
-0.126503 0.37882 0
-0.121285 0.359055 0
-0.130143 0.39915 0
-0.126503 0.37882 0
0 0 0
0 0 0
-0.126503 0.37882 0
-0.121285 0.359055 0
0 0 0
0 0 0
-0.0929928 0.554245 0
-0.0892666 0.537145 0
-0.121285 0.359055 0
-0.114558 0.339868 0
-0.0892666 0.537145 0
-0.0841628 0.520783 0
-0.114558 0.339868 0
-0.10628 0.321921 0
-0.121285 0.359055 0
-0.114558 0.339868 0
0 0 0
0 0 0
-0.114558 0.339868 0
-0.10628 0.321921 0
0 0 0
0 0 0
-0.0527022 0.687618 0
-0.0494409 0.675922 0
-0.0660096 0.624308 0
-0.0615376 0.610593 0
-0.0494409 0.675922 0
-0.0450784 0.66491 0
-0.0615376 0.610593 0
-0.0557821 0.597831 0
-0.0660096 0.624308 0
-0.0615376 0.610593 0
-0.0841628 0.520783 0
-0.0777996 0.504653 0
-0.0615376 0.610593 0
-0.0557821 0.597831 0
-0.0777996 0.504653 0
-0.0699788 0.489885 0
-0.0450784 0.66491 0
-0.0396237 0.654949 0
-0.0557821 0.597831 0
-0.0487784 0.586281 0
-0.0396237 0.654949 0
-0.0331179 0.646332 0
-0.0487784 0.586281 0
-0.0405984 0.576419 0
-0.0557821 0.597831 0
-0.0487784 0.586281 0
-0.0699788 0.489885 0
-0.0608005 0.476527 0
-0.0487784 0.586281 0
-0.0405984 0.576419 0
-0.0608005 0.476527 0
-0.0503206 0.465305 0
-0.0841628 0.520783 0
-0.0777996 0.504653 0
-0.10628 0.321921 0
-0.0966636 0.304625 0
-0.0777996 0.504653 0
-0.0699788 0.489885 0
-0.0966636 0.304625 0
-0.0856413 0.289175 0
-0.10628 0.321921 0
-0.0966636 0.304625 0
0 0 0
0 0 0
-0.0966636 0.304625 0
-0.0856413 0.289175 0
0 0 0
0 0 0
-0.0699788 0.489885 0
-0.0608005 0.476527 0
-0.0856413 0.289175 0
-0.0733913 0.275504 0
-0.0608005 0.476527 0
-0.0503206 0.465305 0
-0.0733913 0.275504 0
-0.0600418 0.264248 0
-0.0856413 0.289175 0
-0.0733913 0.275504 0
0 0 0
0 0 0
-0.0733913 0.275504 0
-0.0600418 0.264248 0
0 0 0
0 0 0
-0.0331179 0.646332 0
-0.0257058 0.639342 0
-0.0405984 0.576419 0
-0.0314114 0.568335 0
-0.0257058 0.639342 0
-0.0175498 0.634282 0
-0.0314114 0.568335 0
-0.0213947 0.56256 0
-0.0405984 0.576419 0
-0.0314114 0.568335 0
-0.0503206 0.465305 0
-0.0387797 0.455962 0
-0.0314114 0.568335 0
-0.0213947 0.56256 0
-0.0387797 0.455962 0
-0.0263354 0.449386 0
-0.0175498 0.634282 0
-0.00889958 0.6314 0
-0.0213947 0.56256 0
-0.0108224 0.559286 0
-0.00889958 0.6314 0
2.27407e-05 0.630763 0
-0.0108224 0.559286 0
6.40812e-06 0.55866 0
-0.0213947 0.56256 0
-0.0108224 0.559286 0
-0.0263354 0.449386 0
-0.0132979 0.44571 0
-0.0108224 0.559286 0
6.40812e-06 0.55866 0
-0.0132979 0.44571 0
4.05742e-06 0.445154 0
-0.0503206 0.465305 0
-0.0387797 0.455962 0
-0.0600418 0.264248 0
-0.0458307 0.255018 0
-0.0387797 0.455962 0
-0.0263354 0.449386 0
-0.0458307 0.255018 0
-0.0309211 0.248606 0
-0.0600418 0.264248 0
-0.0458307 0.255018 0
0 0 0
0 0 0
-0.0458307 0.255018 0
-0.0309211 0.248606 0
0 0 0
0 0 0
-0.0263354 0.449386 0
-0.0132979 0.44571 0
-0.0309211 0.248606 0
-0.0155645 0.244904 0
-0.0132979 0.44571 0
4.05742e-06 0.445154 0
-0.0155645 0.244904 0
3.04092e-06 0.244526 0
-0.0309211 0.248606 0
-0.0155645 0.244904 0
0 0 0
0 0 0
-0.0155645 0.244904 0
3.04092e-06 0.244526 0
0 0 0
0 0 0
-2.35756e-05 0.695062 0
0.0109434 0.695571 0
-6.62483e-06 0.609138 0
0.012541 0.609668 0
0.0109434 0.695571 0
0.0216307 0.698325 0
0.012541 0.609668 0
0.024823 0.612883 0
-6.62483e-06 0.609138 0
0.012541 0.609668 0
-4.24396e-06 0.481043 0
0.0147153 0.481532 0
0.012541 0.609668 0
0.024823 0.612883 0
0.0147153 0.481532 0
0.029158 0.485221 0
0.0216307 0.698325 0
0.0318101 0.703252 0
0.024823 0.612883 0
0.0365311 0.618625 0
0.0318101 0.703252 0
0.041225 0.7101 0
0.0365311 0.618625 0
0.0473837 0.626698 0
0.024823 0.612883 0
0.0365311 0.618625 0
0.029158 0.485221 0
0.0429811 0.491872 0
0.0365311 0.618625 0
0.0473837 0.626698 0
0.0429811 0.491872 0
0.055863 0.501353 0
-4.24396e-06 0.481043 0
0.0147153 0.481532 0
-3.2888e-06 0.262649 0
0.0167636 0.263001 0
0.0147153 0.481532 0
0.029158 0.485221 0
0.0167636 0.263001 0
0.0333033 0.266821 0
-3.2888e-06 0.262649 0
0.0167636 0.263001 0
0 0 0
0 0 0
0.0167636 0.263001 0
0.0333033 0.266821 0
0 0 0
0 0 0
0.029158 0.485221 0
0.0429811 0.491872 0
0.0333033 0.266821 0
0.0493624 0.273447 0
0.0429811 0.491872 0
0.055863 0.501353 0
0.0493624 0.273447 0
0.0646732 0.282992 0
0.0333033 0.266821 0
0.0493624 0.273447 0
0 0 0
0 0 0
0.0493624 0.273447 0
0.0646732 0.282992 0
0 0 0
0 0 0
0.041225 0.7101 0
0.0497077 0.718541 0
0.0473837 0.626698 0
0.0571961 0.636525 0
0.0497077 0.718541 0
0.0571116 0.728302 0
0.0571961 0.636525 0
0.0657993 0.648042 0
0.0473837 0.626698 0
0.0571961 0.636525 0
0.055863 0.501353 0
0.0676368 0.512692 0
0.0571961 0.636525 0
0.0657993 0.648042 0
0.0676368 0.512692 0
0.0780607 0.526197 0
0.0571116 0.728302 0
0.0633953 0.739084 0
0.0657993 0.648042 0
0.0731194 0.660745 0
0.0633953 0.739084 0
0.0685506 0.750514 0
0.0731194 0.660745 0
0.0791246 0.674384 0
0.0657993 0.648042 0
0.0731194 0.660745 0
0.0780607 0.526197 0
0.087076 0.541085 0
0.0731194 0.660745 0
0.0791246 0.674384 0
0.087076 0.541085 0
0.0945897 0.557332 0
0.055863 0.501353 0
0.0676368 0.512692 0
0.0646732 0.282992 0
0.0790612 0.294602 0
0.0676368 0.512692 0
0.0780607 0.526197 0
0.0790612 0.294602 0
0.0922769 0.308692 0
0.0646732 0.282992 0
0.0790612 0.294602 0
0 0 0
0 0 0
0.0790612 0.294602 0
0.0922769 0.308692 0
0 0 0
0 0 0
0.0780607 0.526197 0
0.087076 0.541085 0
0.0922769 0.308692 0
0.104186 0.324576 0
0.087076 0.541085 0
0.0945897 0.557332 0
0.104186 0.324576 0
0.114607 0.342327 0
0.0922769 0.308692 0
0.104186 0.324576 0
0 0 0
0 0 0
0.104186 0.324576 0
0.114607 0.342327 0
0 0 0
0 0 0
0.0685506 0.750514 0
0.0727201 0.761889 0
0.0791246 0.674384 0