# vtk DataFile Version 3.0
#This file was generated by the deal.II library on 2014/11/24 at 15:51: 6
ASCII
DATASET UNSTRUCTURED_GRID

POINTS 13824 double
10 10 10
5 10 10
7.64434 7.64434 7.64434
3.82217 7.65042 7.65042
10 5 10
5 5 10
7.65042 3.82217 7.65042
3.82521 3.82521 7.6582
5 10 10
0 10 10
3.82217 7.65042 7.65042
0 7.6565 7.6565
5 5 10
0 5 10
3.82521 3.82521 7.6582
0 3.82825 7.66598
7.64434 7.64434 7.64434
3.82217 7.65042 7.65042
5.28868 5.28868 5.28868
2.64434 5.30084 5.30084
7.65042 3.82217 7.65042
3.82521 3.82521 7.6582
5.30084 2.64434 5.30084
2.65042 2.65042 5.3164
3.82217 7.65042 7.65042
0 7.6565 7.6565
2.64434 5.30084 5.30084
0 5.313 5.313
3.82521 3.82521 7.6582
0 3.82825 7.66598
2.65042 2.65042 5.3164
0 2.6565 5.33197
10 5 10
5 5 10
7.65042 3.82217 7.65042
3.82521 3.82521 7.6582
10 0 10
5 0 10
7.6565 -1.38778e-17 7.6565
3.82825 -2.08167e-17 7.66598
5 5 10
0 5 10
3.82521 3.82521 7.6582
0 3.82825 7.66598
5 0 10
0 0 10
3.82825 -2.08167e-17 7.66598
0 -2.77556e-17 7.67546
7.65042 3.82217 7.65042
3.82521 3.82521 7.6582
5.30084 2.64434 5.30084
2.65042 2.65042 5.3164
7.6565 -1.38778e-17 7.6565
3.82825 -2.08167e-17 7.66598
5.313 -2.77556e-17 5.313
2.6565 -4.16334e-17 5.33197
3.82521 3.82521 7.6582
0 3.82825 7.66598
2.65042 2.65042 5.3164
0 2.6565 5.33197
3.82825 -2.08167e-17 7.66598
0 -2.77556e-17 7.67546
2.6565 -4.16334e-17 5.33197
0 -5.55112e-17 5.35093
0 10 10
-5 10 10
0 7.6565 7.6565
-3.82217 7.65042 7.65042
0 5 10
-5 5 10
0 3.82825 7.66598
-3.82521 3.82521 7.6582
-5 10 10
-10 10 10
-3.82217 7.65042 7.65042
-7.64434 7.64434 7.64434
-5 5 10
-10 5 10
-3.82521 3.82521 7.6582
-7.65042 3.82217 7.65042
0 7.6565 7.6565
-3.82217 7.65042 7.65042
0 5.313 5.313
-2.64434 5.30084 5.30084
0 3.82825 7.66598
-3.82521 3.82521 7.6582
0 2.6565 5.33197
-2.65042 2.65042 5.3164
-3.82217 7.65042 7.65042
-7.64434 7.64434 7.64434
-2.64434 5.30084 5.30084
-5.28868 5.28868 5.28868
-3.82521 3.82521 7.6582
-7.65042 3.82217 7.65042
-2.65042 2.65042 5.3164
-5.30084 2.64434 5.30084
0 5 10
-5 5 10
0 3.82825 7.66598
-3.82521 3.82521 7.6582
0 0 10
-5 0 10
0 -2.77556e-17 7.67546
-3.82825 -2.08167e-17 7.66598
-5 5 10
-10 5 10
-3.82521 3.82521 7.6582
-7.65042 3.82217 7.65042
-5 0 10
-10 0 10
-3.82825 -2.08167e-17 7.66598
-7.6565 -1.38778e-17 7.6565
0 3.82825 7.66598
-3.82521 3.82521 7.6582
0 2.6565 5.33197
-2.65042 2.65042 5.3164
0 -2.77556e-17 7.67546
-3.82825 -2.08167e-17 7.66598
0 -5.55112e-17 5.35093
-2.6565 -4.16334e-17 5.33197
-3.82521 3.82521 7.6582
-7.65042 3.82217 7.65042
-2.65042 2.65042 5.3164
-5.30084 2.64434 5.30084
-3.82825 -2.08167e-17 7.66598
-7.6565 -1.38778e-17 7.6565
-2.6565 -4.16334e-17 5.33197
-5.313 -2.77556e-17 5.313
10 0 10
5 0 10
7.6565 -1.38778e-17 7.6565
3.82825 -2.08167e-17 7.66598
10 -5 10
5 -5 10
7.65042 -3.82217 7.65042
3.82521 -3.82521 7.6582
5 0 10
0 0 10
3.82825 -2.08167e-17 7.66598
0 -2.77556e-17 7.67546
5 -5 10
0 -5 10
3.82521 -3.82521 7.6582
0 -3.82825 7.66598
7.6565 -1.38778e-17 7.6565
3.82825 -2.08167e-17 7.66598
5.313 -2.77556e-17 5.313
2.6565 -4.16334e-17 5.33197
7.65042 -3.82217 7.65042
3.82521 -3.82521 7.6582
5.30084 -2.64434 5.30084
2.65042 -2.65042 5.3164
3.82825 -2.08167e-17 7.66598
0 -2.77556e-17 7.67546
2.6565 -4.16334e-17 5.33197
0 -5.55112e-17 5.35093
3.82521 -3.82521 7.6582
0 -3.82825 7.66598
2.65042 -2.65042 5.3164
0 -2.6565 5.33197
10 -5 10
5 -5 10
7.65042 -3.82217 7.65042
3.82521 -3.82521 7.6582
10 -10 10
5 -10 10
7.64434 -7.64434 7.64434
3.82217 -7.65042 7.65042
5 -5 10
0 -5 10
3.82521 -3.82521 7.6582
0 -3.82825 7.66598
5 -10 10
0 -10 10
3.82217 -7.65042 7.65042
0 -7.6565 7.6565
7.65042 -3.82217 7.65042
3.82521 -3.82521 7.6582
5.30084 -2.64434 5.30084
2.65042 -2.65042 5.3164
7.64434 -7.64434 7.64434
3.82217 -7.65042 7.65042
5.28868 -5.28868 5.28868
2.64434 -5.30084 5.30084
3.82521 -3.82521 7.6582
0 -3.82825 7.66598
2.65042 -2.65042 5.3164
0 -2.6565 5.33197
3.82217 -7.65042 7.65042
0 -7.6565 7.6565
2.64434 -5.30084 5.30084
0 -5.313 5.313
0 0 10
-5 0 10
0 -2.77556e-17 7.67546
-3.82825 -2.08167e-17 7.66598
0 -5 10
-5 -5 10
0 -3.82825 7.66598
-3.82521 -3.82521 7.6582
-5 0 10
-10 0 10
-3.82825 -2.08167e-17 7.66598
-7.6565 -1.38778e-17 7.6565
-5 -5 10
-10 -5 10
-3.82521 -3.82521 7.6582
-7.65042 -3.82217 7.65042
0 -2.77556e-17 7.67546
-3.82825 -2.08167e-17 7.66598
0 -5.55112e-17 5.35093
-2.6565 -4.16334e-17 5.33197
0 -3.82825 7.66598
-3.82521 -3.82521 7.6582
0 -2.6565 5.33197
-2.65042 -2.65042 5.3164
-3.82825 -2.08167e-17 7.66598
-7.6565 -1.38778e-17 7.6565
-2.6565 -4.16334e-17 5.33197
-5.313 -2.77556e-17 5.313
-3.82521 -3.82521 7.6582
-7.65042 -3.82217 7.65042
-2.65042 -2.65042 5.3164
-5.30084 -2.64434 5.30084
0 -5 10
-5 -5 10
0 -3.82825 7.66598
-3.82521 -3.82521 7.6582
0 -10 10
-5 -10 10
0 -7.6565 7.6565
-3.82217 -7.65042 7.65042
-5 -5 10
-10 -5 10
-3.82521 -3.82521 7.6582
-7.65042 -3.82217 7.65042
-5 -10 10
-10 -10 10
-3.82217 -7.65042 7.65042
-7.64434 -7.64434 7.64434
0 -3.82825 7.66598
-3.82521 -3.82521 7.6582
0 -2.6565 5.33197
-2.65042 -2.65042 5.3164
0 -7.6565 7.6565
-3.82217 -7.65042 7.65042
0 -5.313 5.313
-2.64434 -5.30084 5.30084
-3.82521 -3.82521 7.6582
-7.65042 -3.82217 7.65042
-2.65042 -2.65042 5.3164
-5.30084 -2.64434 5.30084
-3.82217 -7.65042 7.65042
-7.64434 -7.64434 7.64434
-2.64434 -5.30084 5.30084
-5.28868 -5.28868 5.28868
10 10 -10
10 5 -10
7.64434 7.64434 -7.64434
7.65042 3.82217 -7.65042
5 10 -10
5 5 -10
3.82217 7.65042 -7.65042
3.82521 3.82521 -7.6582
10 5 -10
10 0 -10
7.65042 3.82217 -7.65042
7.6565 0 -7.6565
5 5 -10
5 0 -10
3.82521 3.82521 -7.6582
3.82825 0 -7.66598
7.64434 7.64434 -7.64434
7.65042 3.82217 -7.65042
5.28868 5.28868 -5.28868
5.30084 2.64434 -5.30084
3.82217 7.65042 -7.65042
3.82521 3.82521 -7.6582
2.64434 5.30084 -5.30084
2.65042 2.65042 -5.3164
7.65042 3.82217 -7.65042
7.6565 0 -7.6565
5.30084 2.64434 -5.30084
5.313 0 -5.313
3.82521 3.82521 -7.6582
3.82825 0 -7.66598
2.65042 2.65042 -5.3164
2.6565 0 -5.33197
5 10 -10
5 5 -10
3.82217 7.65042 -7.65042
3.82521 3.82521 -7.6582
0 10 -10
0 5 -10
-1.38778e-17 7.6565 -7.6565
-2.08167e-17 3.82825 -7.66598
5 5 -10
5 0 -10
3.82521 3.82521 -7.6582
3.82825 0 -7.66598
0 5 -10
0 0 -10
-2.08167e-17 3.82825 -7.66598
-2.77556e-17 0 -7.67546
3.82217 7.65042 -7.65042
3.82521 3.82521 -7.6582
2.64434 5.30084 -5.30084
2.65042 2.65042 -5.3164
-1.38778e-17 7.6565 -7.6565
-2.08167e-17 3.82825 -7.66598
-2.77556e-17 5.313 -5.313
-4.16334e-17 2.6565 -5.33197
3.82521 3.82521 -7.6582
3.82825 0 -7.66598
2.65042 2.65042 -5.3164
2.6565 0 -5.33197
-2.08167e-17 3.82825 -7.66598
-2.77556e-17 0 -7.67546
-4.16334e-17 2.6565 -5.33197
-5.55112e-17 0 -5.35093
10 0 -10
10 -5 -10
7.6565 0 -7.6565
7.65042 -3.82217 -7.65042
5 0 -10
5 -5 -10
3.82825 0 -7.66598
3.82521 -3.82521 -7.6582
10 -5 -10
10 -10 -10
7.65042 -3.82217 -7.65042
7.64434 -7.64434 -7.64434
5 -5 -10
5 -10 -10
3.82521 -3.82521 -7.6582
3.82217 -7.65042 -7.65042
7.6565 0 -7.6565
7.65042 -3.82217 -7.65042
5.313 0 -5.313
5.30084 -2.64434 -5.30084
3.82825 0 -7.66598
3.82521 -3.82521 -7.6582
2.6565 0 -5.33197
2.65042 -2.65042 -5.3164
7.65042 -3.82217 -7.65042
7.64434 -7.64434 -7.64434
5.30084 -2.64434 -5.30084
5.28868 -5.28868 -5.28868
3.82521 -3.82521 -7.6582
3.82217 -7.65042 -7.65042
2.65042 -2.65042 -5.3164
2.64434 -5.30084 -5.30084
5 0 -10
5 -5 -10
3.82825 0 -7.66598
3.82521 -3.82521 -7.6582
0 0 -10
0 -5 -10
-2.77556e-17 0 -7.67546
-2.08167e-17 -3.82825 -7.66598
5 -5 -10
5 -10 -10
3.82521 -3.82521 -7.6582
3.82217 -7.65042 -7.65042
0 -5 -10
0 -10 -10
-2.08167e-17 -3.82825 -7.66598
-1.38778e-17 -7.6565 -7.6565
3.82825 0 -7.66598
3.82521 -3.82521 -7.6582
2.6565 0 -5.33197
2.65042 -2.65042 -5.3164
-2.77556e-17 0 -7.67546
-2.08167e-17 -3.82825 -7.66598
-5.55112e-17 0 -5.35093
-4.16334e-17 -2.6565 -5.33197
3.82521 -3.82521 -7.6582
3.82217 -7.65042 -7.65042
2.65042 -2.65042 -5.3164
2.64434 -5.30084 -5.30084
-2.08167e-17 -3.82825 -7.66598
-1.38778e-17 -7.6565 -7.6565
-4.16334e-17 -2.6565 -5.33197
-2.77556e-17 -5.313 -5.313
0 10 -10
0 5 -10
-1.38778e-17 7.6565 -7.6565
-2.08167e-17 3.82825 -7.66598
-5 10 -10
-5 5 -10
-3.82217 7.65042 -7.65042
-3.82521 3.82521 -7.6582
0 5 -10
0 0 -10
-2.08167e-17 3.82825 -7.66598
-2.77556e-17 0 -7.67546
-5 5 -10
-5 0 -10
-3.82521 3.82521 -7.6582
-3.82825 0 -7.66598
-1.38778e-17 7.6565 -7.6565
-2.08167e-17 3.82825 -7.66598
-2.77556e-17 5.313 -5.313
-4.16334e-17 2.6565 -5.33197
-3.82217 7.65042 -7.65042
-3.82521 3.82521 -7.6582
-2.64434 5.30084 -5.30084
-2.65042 2.65042 -5.3164
-2.08167e-17 3.82825 -7.66598
-2.77556e-17 0 -7.67546
-4.16334e-17 2.6565 -5.33197
-5.55112e-17 0 -5.35093
-3.82521 3.82521 -7.6582
-3.82825 0 -7.66598
-2.65042 2.65042 -5.3164
-2.6565 0 -5.33197
-5 10 -10
-5 5 -10
-3.82217 7.65042 -7.65042
-3.82521 3.82521 -7.6582
-10 10 -10
-10 5 -10
-7.64434 7.64434 -7.64434
-7.65042 3.82217 -7.65042
-5 5 -10
-5 0 -10
-3.82521 3.82521 -7.6582
-3.82825 0 -7.66598
-10 5 -10
-10 0 -10
-7.65042 3.82217 -7.65042
-7.6565 0 -7.6565
-3.82217 7.65042 -7.65042
-3.82521 3.82521 -7.6582
-2.64434 5.30084 -5.30084
-2.65042 2.65042 -5.3164
-7.64434 7.64434 -7.64434
-7.65042 3.82217 -7.65042
-5.28868 5.28868 -5.28868
-5.30084 2.64434 -5.30084
-3.82521 3.82521 -7.6582
-3.82825 0 -7.66598
-2.65042 2.65042 -5.3164
-2.6565 0 -5.33197
-7.65042 3.82217 -7.65042
-7.6565 0 -7.6565
-5.30084 2.64434 -5.30084
-5.313 0 -5.313
0 0 -10
0 -5 -10
-2.77556e-17 0 -7.67546
-2.08167e-17 -3.82825 -7.66598
-5 0 -10
-5 -5 -10
-3.82825 0 -7.66598
-3.82521 -3.82521 -7.6582
0 -5 -10
0 -10 -10
-2.08167e-17 -3.82825 -7.66598
-1.38778e-17 -7.6565 -7.6565
-5 -5 -10
-5 -10 -10
-3.82521 -3.82521 -7.6582
-3.82217 -7.65042 -7.65042
-2.77556e-17 0 -7.67546
-2.08167e-17 -3.82825 -7.66598
-5.55112e-17 0 -5.35093
-4.16334e-17 -2.6565 -5.33197
-3.82825 0 -7.66598
-3.82521 -3.82521 -7.6582
-2.6565 0 -5.33197
-2.65042 -2.65042 -5.3164
-2.08167e-17 -3.82825 -7.66598
-1.38778e-17 -7.6565 -7.6565
-4.16334e-17 -2.6565 -5.33197
-2.77556e-17 -5.313 -5.313
-3.82521 -3.82521 -7.6582
-3.82217 -7.65042 -7.65042
-2.65042 -2.65042 -5.3164
-2.64434 -5.30084 -5.30084
-5 0 -10
-5 -5 -10
-3.82825 0 -7.66598
[...]
POINT_DATA 13824
VECTORS velocity double
-0.0320385 -0.032091 0.960861
-0.0277798 -0.0334374 0.923447
-0.0155008 -0.0155477 0.924103
-0.0120198 -0.0214565 0.888955
-0.0333861 -0.0278318 0.923437
-0.0360935 -0.0361446 0.875023
-0.0214104 -0.0120668 0.888948
-0.0202452 -0.0202915 0.82783
-0.0277798 -0.0334374 0.923447
3.16555e-05 -0.0361278 0.902726
-0.0120198 -0.0214565 0.888955
2.89147e-05 -0.0257451 0.871533
-0.0360935 -0.0361446 0.875023
3.08709e-05 -0.0477697 0.840313
-0.0202452 -0.0202915 0.82783
2.86905e-05 -0.0271982 0.790321
-0.0155008 -0.0155477 0.924103
-0.0120198 -0.0214565 0.888955
-0.011074 -0.0111154 0.873756
-0.0111391 -0.0238832 0.836664
-0.0214104 -0.0120668 0.888948
-0.0202452 -0.0202915 0.82783
-0.0238423 -0.0111814 0.83666
-0.0270693 -0.0271111 0.768217
-0.0120198 -0.0214565 0.888955
2.89147e-05 -0.0257451 0.871533
-0.0111391 -0.0238832 0.836664
2.62051e-05 -0.0311442 0.819334
-0.0202452 -0.0202915 0.82783
2.86905e-05 -0.0271982 0.790321
-0.0270693 -0.0271111 0.768217
2.65519e-05 -0.0383759 0.728543
-0.0333861 -0.0278318 0.923437
-0.0360935 -0.0361446 0.875023
-0.0214104 -0.0120668 0.888948
-0.0202452 -0.0202915 0.82783
-0.0360794 -2.04219e-05 0.902709
-0.0477215 -1.96626e-05 0.840304
-0.0257012 -1.83193e-05 0.87152
-0.0271541 -1.78231e-05 0.790314
-0.0360935 -0.0361446 0.875023
3.08709e-05 -0.0477697 0.840313
-0.0202452 -0.0202915 0.82783
2.86905e-05 -0.0271982 0.790321
-0.0477215 -1.96626e-05 0.840304
3.03017e-05 -1.83335e-05 0.786708
-0.0271541 -1.78231e-05 0.790314
2.81181e-05 -1.6637e-05 0.734739
-0.0214104 -0.0120668 0.888948
-0.0202452 -0.0202915 0.82783
-0.0238423 -0.0111814 0.83666
-0.0270693 -0.0271111 0.768217
-0.0257012 -1.83193e-05 0.87152
-0.0271541 -1.78231e-05 0.790314
-0.0311052 -1.63844e-05 0.819325
-0.0383363 -1.57149e-05 0.728537
-0.0202452 -0.0202915 0.82783
2.86905e-05 -0.0271982 0.790321
-0.0270693 -0.0271111 0.768217
2.65519e-05 -0.0383759 0.728543
-0.0271541 -1.78231e-05 0.790314
2.81181e-05 -1.6637e-05 0.734739
-0.0383363 -1.57149e-05 0.728537
2.6148e-05 -1.4676e-05 0.668699
3.16555e-05 -0.0361278 0.902726
0.0278438 -0.0334339 0.923455
2.89147e-05 -0.0257451 0.871533
0.0120777 -0.0214542 0.888961
3.08709e-05 -0.0477697 0.840313
0.0361565 -0.0361415 0.875033
2.86905e-05 -0.0271982 0.790321
0.0203025 -0.0202893 0.827837
0.0278438 -0.0334339 0.923455
0.0321033 -0.032086 0.960882
0.0120777 -0.0214542 0.888961
0.0155591 -0.0155441 0.924118
0.0361565 -0.0361415 0.875033
0.0334494 -0.0278268 0.923458
0.0203025 -0.0202893 0.827837
0.0214677 -0.0120632 0.888963
2.89147e-05 -0.0257451 0.871533
0.0120777 -0.0214542 0.888961
2.62051e-05 -0.0311442 0.819334
0.011191 -0.0238817 0.836669
2.86905e-05 -0.0271982 0.790321
0.0203025 -0.0202893 0.827837
2.65519e-05 -0.0383759 0.728543
0.0271215 -0.0271093 0.768222
0.0120777 -0.0214542 0.888961
0.0155591 -0.0155441 0.924118
0.011191 -0.0238817 0.836669
0.0111254 -0.011113 0.873765
0.0203025 -0.0202893 0.827837
0.0214677 -0.0120632 0.888963
0.0271215 -0.0271093 0.768222
0.0238936 -0.0111786 0.83667
3.08709e-05 -0.0477697 0.840313
0.0361565 -0.0361415 0.875033
2.86905e-05 -0.0271982 0.790321
0.0203025 -0.0202893 0.827837
3.03017e-05 -1.83335e-05 0.786708
0.0477821 -1.68768e-05 0.840314
2.81181e-05 -1.6637e-05 0.734739
0.0272098 -1.56223e-05 0.790322
0.0361565 -0.0361415 0.875033
0.0334494 -0.0278268 0.923458
0.0203025 -0.0202893 0.827837
0.0214677 -0.0120632 0.888963
0.0477821 -1.68768e-05 0.840314
0.0361403 -1.53325e-05 0.902731
0.0272098 -1.56223e-05 0.790322
0.0257566 -1.447e-05 0.871535
2.86905e-05 -0.0271982 0.790321
0.0203025 -0.0202893 0.827837
2.65519e-05 -0.0383759 0.728543
0.0271215 -0.0271093 0.768222
2.81181e-05 -1.6637e-05 0.734739
0.0272098 -1.56223e-05 0.790322
2.6148e-05 -1.4676e-05 0.668699
0.0383872 -1.40391e-05 0.728544
0.0203025 -0.0202893 0.827837
0.0214677 -0.0120632 0.888963
0.0271215 -0.0271093 0.768222
0.0238936 -0.0111786 0.83667
0.0272098 -1.56223e-05 0.790322
0.0257566 -1.447e-05 0.871535
0.0383872 -1.40391e-05 0.728544
0.0311549 -1.34657e-05 0.819336
-0.0360794 -2.04219e-05 0.902709
-0.0477215 -1.96626e-05 0.840304
-0.0257012 -1.83193e-05 0.87152
-0.0271541 -1.78231e-05 0.790314
-0.0333892 0.0277911 0.923431
-0.0360966 0.0361054 0.875016
-0.0214128 0.0120303 0.888943
-0.0202477 0.0202559 0.827824
-0.0477215 -1.96626e-05 0.840304
3.03017e-05 -1.83335e-05 0.786708
-0.0271541 -1.78231e-05 0.790314
2.81181e-05 -1.6637e-05 0.734739
-0.0360966 0.0361054 0.875016
2.83846e-05 0.0477327 0.840306
-0.0202477 0.0202559 0.827824
2.65171e-05 0.0271646 0.790315
-0.0257012 -1.83193e-05 0.87152
-0.0271541 -1.78231e-05 0.790314
-0.0311052 -1.63844e-05 0.819325
-0.0383363 -1.57149e-05 0.728537
-0.0214128 0.0120303 0.888943
-0.0202477 0.0202559 0.827824
-0.0238445 0.0111488 0.836656
-0.0270719 0.0270793 0.768213
-0.0271541 -1.78231e-05 0.790314
2.81181e-05 -1.6637e-05 0.734739
-0.0383363 -1.57149e-05 0.728537
2.6148e-05 -1.4676e-05 0.668699
-0.0202477 0.0202559 0.827824
2.65171e-05 0.0271646 0.790315
-0.0270719 0.0270793 0.768213
2.47074e-05 0.0383462 0.728539
-0.0333892 0.0277911 0.923431
-0.0360966 0.0361054 0.875016
-0.0214128 0.0120303 0.888943
-0.0202477 0.0202559 0.827824
-0.0320435 0.0320502 0.960849
-0.0277845 0.033398 0.923433
-0.0155046 0.0155113 0.924093
-0.0120238 0.0214208 0.888944
-0.0360966 0.0361054 0.875016
2.83846e-05 0.0477327 0.840306
-0.0202477 0.0202559 0.827824
2.65171e-05 0.0271646 0.790315
-0.0277845 0.033398 0.923433
2.66224e-05 0.0360902 0.902713
-0.0120238 0.0214208 0.888944
2.48649e-05 0.0257111 0.871522
-0.0214128 0.0120303 0.888943
-0.0202477 0.0202559 0.827824
-0.0238445 0.0111488 0.836656
-0.0270719 0.0270793 0.768213
-0.0155046 0.0155113 0.924093
-0.0120238 0.0214208 0.888944
-0.0110771 0.011083 0.873749
-0.0111427 0.0238514 0.836657
-0.0202477 0.0202559 0.827824
2.65171e-05 0.0271646 0.790315
-0.0270719 0.0270793 0.768213
2.47074e-05 0.0383462 0.728539
-0.0120238 0.0214208 0.888944
2.48649e-05 0.0257111 0.871522
-0.0111427 0.0238514 0.836657
2.27679e-05 0.0311138 0.819327
3.03017e-05 -1.83335e-05 0.786708
0.0477821 -1.68768e-05 0.840314
2.81181e-05 -1.6637e-05 0.734739
0.0272098 -1.56223e-05 0.790322
2.83846e-05 0.0477327 0.840306
0.036154 0.0361077 0.875026
2.65171e-05 0.0271646 0.790315
0.0203008 0.020258 0.827832
0.0477821 -1.68768e-05 0.840314
0.0361403 -1.53325e-05 0.902731
0.0272098 -1.56223e-05 0.790322
0.0257566 -1.447e-05 0.871535
0.036154 0.0361077 0.875026
0.0334472 0.0277964 0.923452
0.0203008 0.020258 0.827832
0.0214658 0.0120343 0.888959
2.81181e-05 -1.6637e-05 0.734739
0.0272098 -1.56223e-05 0.790322
2.6148e-05 -1.4676e-05 0.668699
0.0383872 -1.40391e-05 0.728544
2.65171e-05 0.0271646 0.790315
0.0203008 0.020258 0.827832
2.47074e-05 0.0383462 0.728539
0.0271204 0.027081 0.768219
0.0272098 -1.56223e-05 0.790322
0.0257566 -1.447e-05 0.871535
0.0383872 -1.40391e-05 0.728544
0.0311549 -1.34657e-05 0.819336
0.0203008 0.020258 0.827832
0.0214658 0.0120343 0.888959
0.0271204 0.027081 0.768219
0.0238928 0.0111516 0.836667
2.83846e-05 0.0477327 0.840306
0.036154 0.0361077 0.875026
2.65171e-05 0.0271646 0.790315
0.0203008 0.020258 0.827832
2.66224e-05 0.0360902 0.902713
0.0278383 0.0334001 0.923442
2.48649e-05 0.0257111 0.871522
0.0120737 0.0214227 0.888951
0.036154 0.0361077 0.875026
0.0334472 0.0277964 0.923452
0.0203008 0.020258 0.827832
0.0214658 0.0120343 0.888959
0.0278383 0.0334001 0.923442
0.032098 0.0320554 0.960869
0.0120737 0.0214227 0.888951
0.015555 0.0155153 0.924109
2.65171e-05 0.0271646 0.790315
0.0203008 0.020258 0.827832
2.47074e-05 0.0383462 0.728539
0.0271204 0.027081 0.768219
2.48649e-05 0.0257111 0.871522
0.0120737 0.0214227 0.888951
2.27679e-05 0.0311138 0.819327
0.0111884 0.0238531 0.836662
0.0203008 0.020258 0.827832
0.0214658 0.0120343 0.888959
0.0271204 0.027081 0.768219
0.0238928 0.0111516 0.836667
0.0120737 0.0214227 0.888951
0.015555 0.0155153 0.924109
0.0111884 0.0238531 0.836662
0.0111227 0.0110862 0.873759
0 0 1
0 0 1
0.0374512 0.0374485 0.992252
0.0558808 0.0238614 0.991709
0 0 1
0 0 1
0.0238644 0.0558765 0.99171
0.0412146 0.0412109 0.981593
0 0 1
0 0 1
0.0558808 0.0238614 0.991709
0.067351 -1.39658e-06 0.990552
0 0 1
0 0 1
0.0412146 0.0412109 0.981593
0.0533996 -1.17971e-06 0.972545
0.0374512 0.0374485 0.992252
0.0558808 0.0238614 0.991709
0.0606336 0.0606244 0.966049
0.083474 0.0382094 0.950286
0.0238644 0.0558765 0.99171
0.0412146 0.0412109 0.981593
0.0382186 0.0834646 0.950287
0.060159 0.0601502 0.908973
0.0558808 0.0238614 0.991709
0.067351 -1.39658e-06 0.990552
0.083474 0.0382094 0.950286
0.0949462 -3.36235e-06 0.941276
0.0412146 0.0412109 0.981593
0.0533996 -1.17971e-06 0.972545
0.060159 0.0601502 0.908973
0.0741124 -2.98514e-06 0.879952
0 0 1
0 0 1
0.0238644 0.0558765 0.99171
0.0412146 0.0412109 0.981593
0 0 1
0 0 1
2.41212e-06 0.067346 0.990553
2.40962e-06 0.053396 0.972545
0 0 1
0 0 1
0.0412146 0.0412109 0.981593
0.0533996 -1.17971e-06 0.972545
0 0 1
0 0 1
2.40962e-06 0.053396 0.972545
2.12595e-06 -9.75222e-07 0.954319
0.0238644 0.0558765 0.99171
0.0412146 0.0412109 0.981593
0.0382186 0.0834646 0.950287
0.060159 0.0601502 0.908973
2.41212e-06 0.067346 0.990553
2.40962e-06 0.053396 0.972545
6.21183e-06 0.0949371 0.941278
5.46029e-06 0.0741044 0.879953
0.0412146 0.0412109 0.981593
0.0533996 -1.17971e-06 0.972545
0.060159 0.0601502 0.908973
0.0741124 -2.98514e-06 0.879952
2.40962e-06 0.053396 0.972545
2.12595e-06 -9.75222e-07 0.954319
5.46029e-06 0.0741044 0.879953
4.66832e-06 -2.56742e-06 0.83151
0 0 1
0 0 1
0.067351 -1.39658e-06 0.990552
0.055882 -0.0238646 0.991708
0 0 1
0 0 1
0.0533996 -1.17971e-06 0.972545
0.0412151 -0.041214 0.981593
0 0 1
0 0 1
0.055882 -0.0238646 0.991708
0.0374535 -0.0374528 0.99225
0 0 1
0 0 1
0.0412151 -0.041214 0.981593
0.0238651 -0.0558809 0.991708
0.067351 -1.39658e-06 0.990552
0.055882 -0.0238646 0.991708
0.0949462 -3.36235e-06 0.941276
0.0834749 -0.0382164 0.950284
0.0533996 -1.17971e-06 0.972545
0.0412151 -0.041214 0.981593
0.0741124 -2.98514e-06 0.879952
0.060159 -0.0601566 0.90897
0.055882 -0.0238646 0.991708
0.0374535 -0.0374528 0.99225
0.0834749 -0.0382164 0.950284
0.0606346 -0.0606325 0.966047
0.0412151 -0.041214 0.981593
0.0238651 -0.0558809 0.991708
0.060159 -0.0601566 0.90897
0.0382187 -0.0834725 0.950284
0 0 1
0 0 1
0.0533996 -1.17971e-06 0.972545
0.0412151 -0.041214 0.981593
0 0 1
0 0 1
2.12595e-06 -9.75222e-07 0.954319
1.97906e-06 -0.0533987 0.972544
0 0 1
0 0 1
0.0412151 -0.041214 0.981593
0.0238651 -0.0558809 0.991708
0 0 1
0 0 1
1.97906e-06 -0.0533987 0.972544
1.90255e-06 -0.0673502 0.990552
0.0533996 -1.17971e-06 0.972545
0.0412151 -0.041214 0.981593
0.0741124 -2.98514e-06 0.879952
0.060159 -0.0601566 0.90897
2.12595e-06 -9.75222e-07 0.954319
1.97906e-06 -0.0533987 0.972544
4.66832e-06 -2.56742e-06 0.83151
4.51011e-06 -0.07411 0.879951
0.0412151 -0.041214 0.981593
0.0238651 -0.0558809 0.991708
0.060159 -0.0601566 0.90897
0.0382187 -0.0834725 0.950284
1.97906e-06 -0.0533987 0.972544
1.90255e-06 -0.0673502 0.990552
4.51011e-06 -0.07411 0.879951
5.25401e-06 -0.0949438 0.941276
0 0 1
0 0 1
2.41212e-06 0.067346 0.990553
2.40962e-06 0.053396 0.972545
0 0 1
0 0 1
-0.0238596 0.0558761 0.99171
-0.0412098 0.0412115 0.981593
0 0 1
0 0 1
2.40962e-06 0.053396 0.972545
2.12595e-06 -9.75222e-07 0.954319
0 0 1
0 0 1
-0.0412098 0.0412115 0.981593
-0.0533953 -7.70282e-07 0.972545
2.41212e-06 0.067346 0.990553
2.40962e-06 0.053396 0.972545
6.21183e-06 0.0949371 0.941278
5.46029e-06 0.0741044 0.879953
-0.0238596 0.0558761 0.99171
-0.0412098 0.0412115 0.981593
-0.0382063 0.0834656 0.950287
-0.0601481 0.0601515 0.908971
2.40962e-06 0.053396 0.972545
2.12595e-06 -9.75222e-07 0.954319
5.46029e-06 0.0741044 0.879953
4.66832e-06 -2.56742e-06 0.83151
-0.0412098 0.0412115 0.981593
-0.0533953 -7.70282e-07 0.972545
-0.0601481 0.0601515 0.908971
-0.0741026 -2.46715e-06 0.879952
0 0 1
0 0 1
-0.0238596 0.0558761 0.99171
-0.0412098 0.0412115 0.981593
0 0 1
0 0 1
-0.0374454 0.0374469 0.992255
-0.0558746 0.0238614 0.991711
0 0 1
0 0 1
-0.0412098 0.0412115 0.981593
-0.0533953 -7.70282e-07 0.972545
0 0 1
0 0 1
-0.0558746 0.0238614 0.991711
-0.0673451 -5.21114e-07 0.990554
-0.0238596 0.0558761 0.99171
-0.0412098 0.0412115 0.981593
-0.0382063 0.0834656 0.950287
-0.0601481 0.0601515 0.908971
-0.0374454 0.0374469 0.992255
-0.0558746 0.0238614 0.991711
-0.0606211 0.0606251 0.966052
-0.0834623 0.0382105 0.950288
-0.0412098 0.0412115 0.981593
-0.0533953 -7.70282e-07 0.972545
-0.0601481 0.0601515 0.908971
-0.0741026 -2.46715e-06 0.879952
-0.0558746 0.0238614 0.991711
-0.0673451 -5.21114e-07 0.990554
-0.0834623 0.0382105 0.950288
-0.0949348 -2.07386e-06 0.941278
0 0 1
0 0 1
2.12595e-06 -9.75222e-07 0.954319
1.97906e-06 -0.0533987 0.972544
0 0 1
0 0 1
-0.0533953 -7.70282e-07 0.972545
-0.0412106 -0.0412133 0.981593
0 0 1
0 0 1
1.97906e-06 -0.0533987 0.972544
1.90255e-06 -0.0673502 0.990552
0 0 1
0 0 1
-0.0412106 -0.0412133 0.981593
-0.023861 -0.0558794 0.991709
2.12595e-06 -9.75222e-07 0.954319
1.97906e-06 -0.0533987 0.972544
4.66832e-06 -2.56742e-06 0.83151
4.51011e-06 -0.07411 0.879951
-0.0533953 -7.70282e-07 0.972545
-0.0412106 -0.0412133 0.981593
-0.0741026 -2.46715e-06 0.879952
-0.060149 -0.0601562 0.908971
1.97906e-06 -0.0533987 0.972544
1.90255e-06 -0.0673502 0.990552
4.51011e-06 -0.07411 0.879951
5.25401e-06 -0.0949438 0.941276
-0.0412106 -0.0412133 0.981593
-0.023861 -0.0558794 0.991709
-0.060149 -0.0601562 0.908971
-0.0382078 -0.0834715 0.950285
0 0 1
0 0 1
-0.0533953 -7.70282e-07 0.972545
-0.0412106 -0.0412133 0.981593
0 0 1
0 0 1
-0.0673451 -5.21114e-07 0.990554
-0.0558757 -0.0238627 0.99171
0 0 1
0 0 1
-0.0412106 -0.0412133 0.981593
-0.023861 -0.0558794 0.991709
0 0 1
0 0 1
-0.0558757 -0.0238627 0.99171
-0.0374477 -0.0374493 0.992253
-0.0533953 -7.70282e-07 0.972545
-0.0412106 -0.0412133 0.981593
-0.0741026 -2.46715e-06 0.879952
-0.060149 -0.0601562 0.908971
-0.0673451 -5.21114e-07 0.990554
-0.0558757 -0.0238627 0.99171
-0.0949348 -2.07386e-06 0.941278
-0.0834634 -0.0382148 0.950287
-0.0412106 -0.0412133 0.981593
-0.023861 -0.0558794 0.991709
-0.060149 -0.0601562 0.908971
-0.0382078 -0.0834715 0.950285
-0.0558757 -0.0238627 0.99171
-0.0374477 -0.0374493 0.992253
-0.0834634 -0.0382148 0.950287
-0.0606232 -0.0606303 0.96605
-0.0320385 -0.032091 0.960861
0.00408855 0.00404803 0.965453
-0.0155008 -0.0155477 0.924103
0.00802257 0.00798543 0.932123
-0.0277798 -0.0334374 0.923447
-0.00135075 0.00161095 0.925734
-0.0120198 -0.0214565 0.888955
0.00124095 -0.00155022 0.898583
0.00408855 0.00404803 0.965453
0.0400615 0.0400373 0.97666
0.00802257 0.00798543 0.932123
0.0366002 0.0365749 0.949325
-0.00135075 0.00161095 0.925734
0.0289958 0.0460181 0.953598
0.00124095 -0.00155022 0.898583
0.0220093 0.0433406 0.92678
-0.0155008 -0.0155477 0.924103
0.00802257 0.00798543 0.932123
-0.011074 -0.0111154 0.873756
0.00329154 0.00325755 0.890595
-0.0120198 -0.0214565 0.888955
0.00124095 -0.00155022 0.898583
-0.0111391 -0.0238832 0.836664
-0.00548297 -0.0123476 0.855271
0.00802257 0.00798543 0.932123
0.0366002 0.0365749 0.949325
0.00329154 0.00325755 0.890595
0.0317356 0.0317099 0.915707
0.00124095 -0.00155022 0.898583
0.0220093 0.0433406 0.92678
-0.00548297 -0.0123476 0.855271
0.0171641 0.0356595 0.889002
-0.0277798 -0.0334374 0.923447
-0.00135075 0.00161095 0.925734
-0.0120198 -0.0214565 0.888955
0.00124095 -0.00155022 0.898583
3.16555e-05 -0.0361278 0.902726
2.54825e-05 -0.0028274 0.902303
2.89147e-05 -0.0257451 0.871533
2.34896e-05 -0.00946013 0.880726
-0.00135075 0.00161095 0.925734
0.0289958 0.0460181 0.953598
0.00124095 -0.00155022 0.898583
0.0220093 0.0433406 0.92678
2.54825e-05 -0.0028274 0.902303
1.61219e-05 0.0526239 0.942808
2.34896e-05 -0.00946013 0.880726
1.61936e-05 0.0474453 0.914313
-0.0120198 -0.0214565 0.888955
0.00124095 -0.00155022 0.898583
-0.0111391 -0.0238832 0.836664
-0.00548297 -0.0123476 0.855271
2.89147e-05 -0.0257451 0.871533
2.34896e-05 -0.00946013 0.880726
2.62051e-05 -0.0311442 0.819334
2.20849e-05 -0.0235535 0.836172
0.00124095 -0.00155022 0.898583
0.0220093 0.0433406 0.92678
-0.00548297 -0.0123476 0.855271
0.0171641 0.0356595 0.889002
2.34896e-05 -0.00946013 0.880726
1.61936e-05 0.0474453 0.914313
2.20849e-05 -0.0235535 0.836172
1.64343e-05 0.03729 0.87379
0.0400615 0.0400373 0.97666
0.0528524 0.0528454 0.977261
0.0366002 0.0365749 0.949325
0.0558898 0.0558771 0.968406
0.0289958 0.0460181 0.953598
0.0453607 0.0720964 0.975697
0.0220093 0.0433406 0.92678
0.0369359 0.0821486 0.957459
0.0528524 0.0528454 0.977261
0 0 1
0.0558898 0.0558771 0.968406
0.0374512 0.0374485 0.992252
0.0453607 0.0720964 0.975697
0 0 1
0.0369359 0.0821486 0.957459
0.0238644 0.0558765 0.99171
0.0366002 0.0365749 0.949325
0.0558898 0.0558771 0.968406
0.0317356 0.0317099 0.915707
0.0575457 0.0575285 0.93923
0.0220093 0.0433406 0.92678
0.0369359 0.0821486 0.957459
0.0171641 0.0356595 0.889002
0.0385697 0.0821256 0.915175
0.0558898 0.0558771 0.968406
0.0374512 0.0374485 0.992252
0.0575457 0.0575285 0.93923
0.0606336 0.0606244 0.966049
0.0369359 0.0821486 0.957459
0.0238644 0.0558765 0.99171
0.0385697 0.0821256 0.915175
0.0382186 0.0834646 0.950287
0.0289958 0.0460181 0.953598
0.0453607 0.0720964 0.975697
0.0220093 0.0433406 0.92678
0.0369359 0.0821486 0.957459
1.61219e-05 0.0526239 0.942808
6.48724e-06 0.0907712 0.969611
1.61936e-05 0.0474453 0.914313
8.6712e-06 0.0995974 0.948958
0.0453607 0.0720964 0.975697
0 0 1
0.0369359 0.0821486 0.957459
0.0238644 0.0558765 0.99171
6.48724e-06 0.0907712 0.969611
0 0 1
8.6712e-06 0.0995974 0.948958
2.41212e-06 0.067346 0.990553
0.0220093 0.0433406 0.92678
0.0369359 0.0821486 0.957459
0.0171641 0.0356595 0.889002
0.0385697 0.0821256 0.915175
1.61936e-05 0.0474453 0.914313
8.6712e-06 0.0995974 0.948958
1.64343e-05 0.03729 0.87379
1.09367e-05 0.0971767 0.900339
0.0369359 0.0821486 0.957459
0.0238644 0.0558765 0.99171
0.0385697 0.0821256 0.915175
0.0382186 0.0834646 0.950287
8.6712e-06 0.0995974 0.948958
2.41212e-06 0.067346 0.990553
1.09367e-05 0.0971767 0.900339
6.21183e-06 0.0949371 0.941278
3.16555e-05 -0.0361278 0.902726
2.54825e-05 -0.0028274 0.902303
2.89147e-05 -0.0257451 0.871533
2.34896e-05 -0.00946013 0.880726
0.0278438 -0.0334339 0.923455
0.00140184 0.00161265 0.925741
0.0120777 -0.0214542 0.888961
-0.00119415 -0.00154909 0.898589
2.54825e-05 -0.0028274 0.902303
1.61219e-05 0.0526239 0.942808
2.34896e-05 -0.00946013 0.880726
1.61936e-05 0.0474453 0.914313
0.00140184 0.00161265 0.925741
-0.028963 0.0460182 0.953605
-0.00119415 -0.00154909 0.898589
-0.0219768 0.0433413 0.926785
2.89147e-05 -0.0257451 0.871533
2.34896e-05 -0.00946013 0.880726
2.62051e-05 -0.0311442 0.819334
2.20849e-05 -0.0235535 0.836172
0.0120777 -0.0214542 0.888961
-0.00119415 -0.00154909 0.898589
0.011191 -0.0238817 0.836669
0.00552639 -0.0123465 0.855275
2.34896e-05 -0.00946013 0.880726
1.61936e-05 0.0474453 0.914313
2.20849e-05 -0.0235535 0.836172
1.64343e-05 0.03729 0.87379
-0.00119415 -0.00154909 0.898589
-0.0219768 0.0433413 0.926785
0.00552639 -0.0123465 0.855275
-0.0171317 0.0356612 0.889006
0.0278438 -0.0334339 0.923455
0.00140184 0.00161265 0.925741
0.0120777 -0.0214542 0.888961
-0.00119415 -0.00154909 0.898589
0.0321033 -0.032086 0.960882
-0.00403749 0.00405118 0.965473
0.0155591 -0.0155441 0.924118
-0.0079756 0.00798789 0.932137
0.00140184 0.00161265 0.925741
-0.028963 0.0460182 0.953605
-0.00119415 -0.00154909 0.898589
-0.0219768 0.0433413 0.926785
-0.00403749 0.00405118 0.965473
-0.0400274 0.0400369 0.976679
-0.0079756 0.00798789 0.932137
-0.0365669 0.0365759 0.949337
0.0120777 -0.0214542 0.888961
-0.00119415 -0.00154909 0.898589
0.011191 -0.0238817 0.836669
0.00552639 -0.0123465 0.855275
0.0155591 -0.0155441 0.924118
-0.0079756 0.00798789 0.932137
0.0111254 -0.011113 0.873765
-0.00324899 0.00325928 0.890604
-0.00119415 -0.00154909 0.898589
-0.0219768 0.0433413 0.926785
0.00552639 -0.0123465 0.855275
-0.0171317 0.0356612 0.889006
-0.0079756 0.00798789 0.932137
-0.0365669 0.0365759 0.949337
-0.00324899 0.00325928 0.890604
-0.0317033 0.0317119 0.915715
1.61219e-05 0.0526239 0.942808
6.48724e-06 0.0907712 0.969611