# vtk DataFile Version 3.0
#This file was generated by the deal.II library on 2014/11/11 at 23:17:35
ASCII
DATASET UNSTRUCTURED_GRID

POINTS 49216 double
10 10 10
5 10 10
7.64434 7.64434 7.64434
3.82217 7.65042 7.65042
10 5 10
5 5 10
7.65042 3.82217 7.65042
3.82521 3.82521 7.6582
5 10 10
0 10 10
3.82217 7.65042 7.65042
0 7.6565 7.6565
5 5 10
0 5 10
3.82521 3.82521 7.6582
0 3.82825 7.66598
7.64434 7.64434 7.64434
3.82217 7.65042 7.65042
5.28868 5.28868 5.28868
2.64434 5.30084 5.30084
7.65042 3.82217 7.65042
3.82521 3.82521 7.6582
5.30084 2.64434 5.30084
2.65042 2.65042 5.3164
3.82217 7.65042 7.65042
0 7.6565 7.6565
2.64434 5.30084 5.30084
0 5.313 5.313
3.82521 3.82521 7.6582
0 3.82825 7.66598
2.65042 2.65042 5.3164
0 2.6565 5.33197
10 5 10
5 5 10
7.65042 3.82217 7.65042
3.82521 3.82521 7.6582
10 0 10
5 0 10
7.6565 -1.38778e-17 7.6565
3.82825 -2.08167e-17 7.66598
5 5 10
0 5 10
3.82521 3.82521 7.6582
0 3.82825 7.66598
5 0 10
0 0 10
3.82825 -2.08167e-17 7.66598
0 -2.77556e-17 7.67546
7.65042 3.82217 7.65042
3.82521 3.82521 7.6582
5.30084 2.64434 5.30084
2.65042 2.65042 5.3164
7.6565 -1.38778e-17 7.6565
3.82825 -2.08167e-17 7.66598
5.313 -2.77556e-17 5.313
2.6565 -4.16334e-17 5.33197
3.82521 3.82521 7.6582
0 3.82825 7.66598
2.65042 2.65042 5.3164
0 2.6565 5.33197
3.82825 -2.08167e-17 7.66598
0 -2.77556e-17 7.67546
2.6565 -4.16334e-17 5.33197
0 -5.55112e-17 5.35093
0 10 10
-5 10 10
0 7.6565 7.6565
-3.82217 7.65042 7.65042
0 5 10
-5 5 10
0 3.82825 7.66598
-3.82521 3.82521 7.6582
-5 10 10
-10 10 10
-3.82217 7.65042 7.65042
-7.64434 7.64434 7.64434
-5 5 10
-10 5 10
-3.82521 3.82521 7.6582
-7.65042 3.82217 7.65042
0 7.6565 7.6565
-3.82217 7.65042 7.65042
0 5.313 5.313
-2.64434 5.30084 5.30084
0 3.82825 7.66598
-3.82521 3.82521 7.6582
0 2.6565 5.33197
-2.65042 2.65042 5.3164
-3.82217 7.65042 7.65042
-7.64434 7.64434 7.64434
-2.64434 5.30084 5.30084
-5.28868 5.28868 5.28868
-3.82521 3.82521 7.6582
-7.65042 3.82217 7.65042
-2.65042 2.65042 5.3164
-5.30084 2.64434 5.30084
0 5 10
-5 5 10
0 3.82825 7.66598
-3.82521 3.82521 7.6582
0 0 10
-5 0 10
0 -2.77556e-17 7.67546
-3.82825 -2.08167e-17 7.66598
-5 5 10
-10 5 10
-3.82521 3.82521 7.6582
-7.65042 3.82217 7.65042
-5 0 10
-10 0 10
-3.82825 -2.08167e-17 7.66598
-7.6565 -1.38778e-17 7.6565
0 3.82825 7.66598
-3.82521 3.82521 7.6582
0 2.6565 5.33197
-2.65042 2.65042 5.3164
0 -2.77556e-17 7.67546
-3.82825 -2.08167e-17 7.66598
0 -5.55112e-17 5.35093
-2.6565 -4.16334e-17 5.33197
-3.82521 3.82521 7.6582
-7.65042 3.82217 7.65042
-2.65042 2.65042 5.3164
-5.30084 2.64434 5.30084
-3.82825 -2.08167e-17 7.66598
-7.6565 -1.38778e-17 7.6565
-2.6565 -4.16334e-17 5.33197
-5.313 -2.77556e-17 5.313
10 0 10
5 0 10
7.6565 -1.38778e-17 7.6565
3.82825 -2.08167e-17 7.66598
10 -5 10
5 -5 10
7.65042 -3.82217 7.65042
3.82521 -3.82521 7.6582
5 0 10
0 0 10
3.82825 -2.08167e-17 7.66598
0 -2.77556e-17 7.67546
5 -5 10
0 -5 10
3.82521 -3.82521 7.6582
0 -3.82825 7.66598
7.6565 -1.38778e-17 7.6565
3.82825 -2.08167e-17 7.66598
5.313 -2.77556e-17 5.313
2.6565 -4.16334e-17 5.33197
7.65042 -3.82217 7.65042
3.82521 -3.82521 7.6582
5.30084 -2.64434 5.30084
2.65042 -2.65042 5.3164
3.82825 -2.08167e-17 7.66598
0 -2.77556e-17 7.67546
2.6565 -4.16334e-17 5.33197
0 -5.55112e-17 5.35093
3.82521 -3.82521 7.6582
0 -3.82825 7.66598
2.65042 -2.65042 5.3164
0 -2.6565 5.33197
10 -5 10
5 -5 10
7.65042 -3.82217 7.65042
3.82521 -3.82521 7.6582
10 -10 10
5 -10 10
7.64434 -7.64434 7.64434
3.82217 -7.65042 7.65042
5 -5 10
0 -5 10
3.82521 -3.82521 7.6582
0 -3.82825 7.66598
5 -10 10
0 -10 10
3.82217 -7.65042 7.65042
0 -7.6565 7.6565
7.65042 -3.82217 7.65042
3.82521 -3.82521 7.6582
5.30084 -2.64434 5.30084
2.65042 -2.65042 5.3164
7.64434 -7.64434 7.64434
3.82217 -7.65042 7.65042
5.28868 -5.28868 5.28868
2.64434 -5.30084 5.30084
3.82521 -3.82521 7.6582
0 -3.82825 7.66598
2.65042 -2.65042 5.3164
0 -2.6565 5.33197
3.82217 -7.65042 7.65042
0 -7.6565 7.6565
2.64434 -5.30084 5.30084
0 -5.313 5.313
0 0 10
-5 0 10
0 -2.77556e-17 7.67546
-3.82825 -2.08167e-17 7.66598
0 -5 10
-5 -5 10
0 -3.82825 7.66598
-3.82521 -3.82521 7.6582
-5 0 10
-10 0 10
-3.82825 -2.08167e-17 7.66598
-7.6565 -1.38778e-17 7.6565
-5 -5 10
-10 -5 10
-3.82521 -3.82521 7.6582
-7.65042 -3.82217 7.65042
0 -2.77556e-17 7.67546
-3.82825 -2.08167e-17 7.66598
0 -5.55112e-17 5.35093
-2.6565 -4.16334e-17 5.33197
0 -3.82825 7.66598
-3.82521 -3.82521 7.6582
0 -2.6565 5.33197
-2.65042 -2.65042 5.3164
-3.82825 -2.08167e-17 7.66598
-7.6565 -1.38778e-17 7.6565
-2.6565 -4.16334e-17 5.33197
-5.313 -2.77556e-17 5.313
-3.82521 -3.82521 7.6582
-7.65042 -3.82217 7.65042
-2.65042 -2.65042 5.3164
-5.30084 -2.64434 5.30084
0 -5 10
-5 -5 10
0 -3.82825 7.66598
-3.82521 -3.82521 7.6582
0 -10 10
-5 -10 10
0 -7.6565 7.6565
-3.82217 -7.65042 7.65042
-5 -5 10
-10 -5 10
-3.82521 -3.82521 7.6582
-7.65042 -3.82217 7.65042
-5 -10 10
-10 -10 10
-3.82217 -7.65042 7.65042
-7.64434 -7.64434 7.64434
0 -3.82825 7.66598
-3.82521 -3.82521 7.6582
0 -2.6565 5.33197
-2.65042 -2.65042 5.3164
0 -7.6565 7.6565
-3.82217 -7.65042 7.65042
0 -5.313 5.313
-2.64434 -5.30084 5.30084
-3.82521 -3.82521 7.6582
-7.65042 -3.82217 7.65042
-2.65042 -2.65042 5.3164
-5.30084 -2.64434 5.30084
-3.82217 -7.65042 7.65042
-7.64434 -7.64434 7.64434
-2.64434 -5.30084 5.30084
-5.28868 -5.28868 5.28868
10 10 10
10 10 5
7.64434 7.64434 7.64434
7.65042 7.65042 3.82217
5 10 10
5 10 5
3.82217 7.65042 7.65042
3.82521 7.6582 3.82521
10 10 5
10 10 0
7.65042 7.65042 3.82217
7.6565 7.6565 0
5 10 5
5 10 0
3.82521 7.6582 3.82521
3.82825 7.66598 0
7.64434 7.64434 7.64434
7.65042 7.65042 3.82217
5.28868 5.28868 5.28868
5.30084 5.30084 2.64434
3.82217 7.65042 7.65042
3.82521 7.6582 3.82521
2.64434 5.30084 5.30084
2.65042 5.3164 2.65042
7.65042 7.65042 3.82217
7.6565 7.6565 0
5.30084 5.30084 2.64434
5.313 5.313 0
3.82521 7.6582 3.82521
3.82825 7.66598 0
2.65042 5.3164 2.65042
2.6565 5.33197 0
5 10 10
5 10 5
3.82217 7.65042 7.65042
3.82521 7.6582 3.82521
0 10 10
0 10 5
0 7.6565 7.6565
-1.38778e-17 7.66598 3.82825
5 10 5
5 10 0
3.82521 7.6582 3.82521
3.82825 7.66598 0
0 10 5
0 10 0
-1.38778e-17 7.66598 3.82825
-2.77556e-17 7.67546 0
3.82217 7.65042 7.65042
3.82521 7.6582 3.82521
2.64434 5.30084 5.30084
2.65042 5.3164 2.65042
0 7.6565 7.6565
-1.38778e-17 7.66598 3.82825
0 5.313 5.313
-2.77556e-17 5.33197 2.6565
3.82521 7.6582 3.82521
3.82825 7.66598 0
2.65042 5.3164 2.65042
2.6565 5.33197 0
-1.38778e-17 7.66598 3.82825
-2.77556e-17 7.67546 0
-2.77556e-17 5.33197 2.6565
-5.55112e-17 5.35093 0
10 10 0
10 10 -5
7.6565 7.6565 0
7.65042 7.65042 -3.82217
5 10 0
5 10 -5
3.82825 7.66598 0
3.82521 7.6582 -3.82521
10 10 -5
10 10 -10
7.65042 7.65042 -3.82217
7.64434 7.64434 -7.64434
5 10 -5
5 10 -10
3.82521 7.6582 -3.82521
3.82217 7.65042 -7.65042
7.6565 7.6565 0
7.65042 7.65042 -3.82217
5.313 5.313 0
5.30084 5.30084 -2.64434
3.82825 7.66598 0
3.82521 7.6582 -3.82521
2.6565 5.33197 0
2.65042 5.3164 -2.65042
7.65042 7.65042 -3.82217
7.64434 7.64434 -7.64434
5.30084 5.30084 -2.64434
5.28868 5.28868 -5.28868
3.82521 7.6582 -3.82521
3.82217 7.65042 -7.65042
2.65042 5.3164 -2.65042
2.64434 5.30084 -5.30084
5 10 0
5 10 -5
3.82825 7.66598 0
3.82521 7.6582 -3.82521
0 10 0
0 10 -5
-2.77556e-17 7.67546 0
-2.08167e-17 7.66598 -3.82825
5 10 -5
5 10 -10
3.82521 7.6582 -3.82521
3.82217 7.65042 -7.65042
0 10 -5
0 10 -10
-2.08167e-17 7.66598 -3.82825
-1.38778e-17 7.6565 -7.6565
3.82825 7.66598 0
3.82521 7.6582 -3.82521
2.6565 5.33197 0
2.65042 5.3164 -2.65042
-2.77556e-17 7.67546 0
-2.08167e-17 7.66598 -3.82825
-5.55112e-17 5.35093 0
-4.16334e-17 5.33197 -2.6565
3.82521 7.6582 -3.82521
3.82217 7.65042 -7.65042
2.65042 5.3164 -2.65042
2.64434 5.30084 -5.30084
-2.08167e-17 7.66598 -3.82825
-1.38778e-17 7.6565 -7.6565
-4.16334e-17 5.33197 -2.6565
-2.77556e-17 5.313 -5.313
0 10 10
0 10 5
0 7.6565 7.6565
-1.38778e-17 7.66598 3.82825
-5 10 10
-5 10 5
-3.82217 7.65042 7.65042
-3.82521 7.6582 3.82521
0 10 5
0 10 0
-1.38778e-17 7.66598 3.82825
-2.77556e-17 7.67546 0
-5 10 5
-5 10 0
-3.82521 7.6582 3.82521
-3.82825 7.66598 0
0 7.6565 7.6565
-1.38778e-17 7.66598 3.82825
0 5.313 5.313
-2.77556e-17 5.33197 2.6565
-3.82217 7.65042 7.65042
-3.82521 7.6582 3.82521
-2.64434 5.30084 5.30084
-2.65042 5.3164 2.65042
-1.38778e-17 7.66598 3.82825
-2.77556e-17 7.67546 0
-2.77556e-17 5.33197 2.6565
-5.55112e-17 5.35093 0
-3.82521 7.6582 3.82521
-3.82825 7.66598 0
-2.65042 5.3164 2.65042
-2.6565 5.33197 0
-5 10 10
-5 10 5
-3.82217 7.65042 7.65042
-3.82521 7.6582 3.82521
-10 10 10
-10 10 5
-7.64434 7.64434 7.64434
-7.65042 7.65042 3.82217
-5 10 5
-5 10 0
-3.82521 7.6582 3.82521
-3.82825 7.66598 0
-10 10 5
-10 10 0
-7.65042 7.65042 3.82217
-7.6565 7.6565 0
-3.82217 7.65042 7.65042
-3.82521 7.6582 3.82521
-2.64434 5.30084 5.30084
-2.65042 5.3164 2.65042
-7.64434 7.64434 7.64434
-7.65042 7.65042 3.82217
-5.28868 5.28868 5.28868
-5.30084 5.30084 2.64434
-3.82521 7.6582 3.82521
-3.82825 7.66598 0
-2.65042 5.3164 2.65042
-2.6565 5.33197 0
-7.65042 7.65042 3.82217
-7.6565 7.6565 0
-5.30084 5.30084 2.64434
-5.313 5.313 0
0 10 0
0 10 -5
-2.77556e-17 7.67546 0
-2.08167e-17 7.66598 -3.82825
-5 10 0
-5 10 -5
-3.82825 7.66598 0
-3.82521 7.6582 -3.82521
0 10 -5
0 10 -10
-2.08167e-17 7.66598 -3.82825
-1.38778e-17 7.6565 -7.6565
-5 10 -5
-5 10 -10
-3.82521 7.6582 -3.82521
-3.82217 7.65042 -7.65042
-2.77556e-17 7.67546 0
-2.08167e-17 7.66598 -3.82825
-5.55112e-17 5.35093 0
-4.16334e-17 5.33197 -2.6565
-3.82825 7.66598 0
-3.82521 7.6582 -3.82521
-2.6565 5.33197 0
-2.65042 5.3164 -2.65042
-2.08167e-17 7.66598 -3.82825
-1.38778e-17 7.6565 -7.6565
-4.16334e-17 5.33197 -2.6565
-2.77556e-17 5.313 -5.313
-3.82521 7.6582 -3.82521
-3.82217 7.65042 -7.65042
-2.65042 5.3164 -2.65042
-2.64434 5.30084 -5.30084
-5 10 0
-5 10 -5
-3.82825 7.66598 0
-3.82521 7.6582 -3.82521
-10 10 0
-10 10 -5
-7.6565 7.6565 0
-7.65042 7.65042 -3.82217
-5 10 -5
-5 10 -10
-3.82521 7.6582 -3.82521
-3.82217 7.65042 -7.65042
-10 10 -5
-10 10 -10
-7.65042 7.65042 -3.82217
-7.64434 7.64434 -7.64434
-3.82825 7.66598 0
-3.82521 7.6582 -3.82521
-2.6565 5.33197 0
[...]
POINT_DATA 49216
VECTORS velocity double
-0.031842 -0.0317139 0.955078
-0.0275416 -0.0330058 0.917971
-0.0153758 -0.0152529 0.918594
-0.0119495 -0.0211053 0.883831
-0.0331291 -0.0274157 0.917975
-0.0357421 -0.0356215 0.870047
-0.0212257 -0.0118261 0.883829
-0.0200692 -0.01995 0.823439
-0.0275416 -0.0330058 0.917971
-8.94782e-05 -0.0356861 0.897476
-0.0119495 -0.0211053 0.883831
-8.94082e-05 -0.0253449 0.86662
-0.0357421 -0.0356215 0.870047
-8.51163e-05 -0.0470892 0.835762
-0.0200692 -0.01995 0.823439
-8.71233e-05 -0.0267573 0.786437
-0.0153758 -0.0152529 0.918594
-0.0119495 -0.0211053 0.883831
-0.0109638 -0.0108472 0.868798
-0.0110549 -0.0234759 0.832149
-0.0212257 -0.0118261 0.883829
-0.0200692 -0.01995 0.823439
-0.0235956 -0.0109404 0.832137
-0.0267419 -0.0266293 0.764575
-0.0119495 -0.0211053 0.883831
-8.94082e-05 -0.0253449 0.86662
-0.0110549 -0.0234759 0.832149
-8.46967e-05 -0.0306285 0.815058
-0.0200692 -0.01995 0.823439
-8.71233e-05 -0.0267573 0.786437
-0.0267419 -0.0266293 0.764575
-8.0991e-05 -0.0376974 0.72554
-0.0331291 -0.0274157 0.917975
-0.0357421 -0.0356215 0.870047
-0.0212257 -0.0118261 0.883829
-0.0200692 -0.01995 0.823439
-0.0358046 4.22355e-05 0.897474
-0.0472087 3.51285e-05 0.835747
-0.0254638 3.94638e-05 0.866607
-0.0268751 3.49448e-05 0.786408
-0.0357421 -0.0356215 0.870047
-8.51163e-05 -0.0470892 0.835762
-0.0200692 -0.01995 0.823439
-8.71233e-05 -0.0267573 0.786437
-0.0472087 3.51285e-05 0.835747
-7.58602e-05 2.70754e-05 0.782872
-0.0268751 3.49448e-05 0.786408
-8.15573e-05 2.91191e-05 0.731651
-0.0212257 -0.0118261 0.883829
-0.0200692 -0.01995 0.823439
-0.0235956 -0.0109404 0.832137
-0.0267419 -0.0266293 0.764575
-0.0254638 3.94638e-05 0.866607
-0.0268751 3.49448e-05 0.786408
-0.0307558 3.61237e-05 0.815024
-0.0378174 3.35301e-05 0.725494
-0.0200692 -0.01995 0.823439
-8.71233e-05 -0.0267573 0.786437
-0.0267419 -0.0266293 0.764575
-8.0991e-05 -0.0376974 0.72554
-0.0268751 3.49448e-05 0.786408
-8.15573e-05 2.91191e-05 0.731651
-0.0378174 3.35301e-05 0.725494
-7.533e-05 2.88259e-05 0.666726
-8.94782e-05 -0.0356861 0.897476
0.0273524 -0.0330075 0.917972
-8.94082e-05 -0.0253449 0.86662
0.0117668 -0.0211054 0.88384
-8.51163e-05 -0.0470892 0.835762
0.035555 -0.0356205 0.870061
-8.71233e-05 -0.0267573 0.786437
0.0198848 -0.0199507 0.823473
0.0273524 -0.0330075 0.917972
0.0316479 -0.0317191 0.955064
0.0117668 -0.0211054 0.88384
0.0151899 -0.0152601 0.918594
0.035555 -0.0356205 0.870061
0.0329406 -0.0274233 0.917977
0.0198848 -0.0199507 0.823473
0.0210363 -0.0118378 0.883848
-8.94082e-05 -0.0253449 0.86662
0.0117668 -0.0211054 0.88384
-8.46967e-05 -0.0306285 0.815058
0.0108775 -0.0234663 0.832174
-8.71233e-05 -0.0267573 0.786437
0.0198848 -0.0199507 0.823473
-8.0991e-05 -0.0376974 0.72554
0.0265588 -0.0266177 0.764636
0.0117668 -0.0211054 0.88384
0.0151899 -0.0152601 0.918594
0.0108775 -0.0234663 0.832174
0.0107766 -0.0108442 0.868823
0.0198848 -0.0199507 0.823473
0.0210363 -0.0118378 0.883848
0.0265588 -0.0266177 0.764636
0.0233935 -0.0109403 0.832191
-8.51163e-05 -0.0470892 0.835762
0.035555 -0.0356205 0.870061
-8.71233e-05 -0.0267573 0.786437
0.0198848 -0.0199507 0.823473
-7.58602e-05 2.70754e-05 0.782872
0.047029 1.74573e-05 0.835776
-8.15573e-05 2.91191e-05 0.731651
0.0266959 2.08038e-05 0.78646
0.035555 -0.0356205 0.870061
0.0329406 -0.0274233 0.917977
0.0198848 -0.0199507 0.823473
0.0210363 -0.0118378 0.883848
0.047029 1.74573e-05 0.835776
0.035627 7.66197e-06 0.89749
0.0266959 2.08038e-05 0.78646
0.0252788 1.27638e-05 0.866638
-8.71233e-05 -0.0267573 0.786437
0.0198848 -0.0199507 0.823473
-8.0991e-05 -0.0376974 0.72554
0.0265588 -0.0266177 0.764636
-8.15573e-05 2.91191e-05 0.731651
0.0266959 2.08038e-05 0.78646
-7.533e-05 2.88259e-05 0.666726
0.0376352 2.22014e-05 0.72558
0.0198848 -0.0199507 0.823473
0.0210363 -0.0118378 0.883848
0.0265588 -0.0266177 0.764636
0.0233935 -0.0109403 0.832191
0.0266959 2.08038e-05 0.78646
0.0252788 1.27638e-05 0.866638
0.0376352 2.22014e-05 0.72558
0.0305504 1.60845e-05 0.815094
-0.0358046 4.22355e-05 0.897474
-0.0472087 3.51285e-05 0.835747
-0.0254638 3.94638e-05 0.866607
-0.0268751 3.49448e-05 0.786408
-0.0331151 0.0275024 0.917974
-0.0357289 0.0356967 0.870043
-0.0212151 0.0119057 0.883826
-0.0200588 0.0200223 0.82343
-0.0472087 3.51285e-05 0.835747
-7.58602e-05 2.70754e-05 0.782872
-0.0268751 3.49448e-05 0.786408
-8.15573e-05 2.91191e-05 0.731651
-0.0357289 0.0356967 0.870043
-6.68966e-05 0.0471514 0.835754
-0.0200588 0.0200223 0.82343
-7.3076e-05 0.0268199 0.786421
-0.0254638 3.94638e-05 0.866607
-0.0268751 3.49448e-05 0.786408
-0.0307558 3.61237e-05 0.815024
-0.0378174 3.35301e-05 0.725494
-0.0212151 0.0119057 0.883826
-0.0200588 0.0200223 0.82343
-0.0235908 0.0110145 0.832131
-0.0267386 0.0267012 0.76456
-0.0268751 3.49448e-05 0.786408
-8.15573e-05 2.91191e-05 0.731651
-0.0378174 3.35301e-05 0.725494
-7.533e-05 2.88259e-05 0.666726
-0.0200588 0.0200223 0.82343
-7.3076e-05 0.0268199 0.786421
-0.0267386 0.0267012 0.76456
-7.11428e-05 0.0377634 0.725515
-0.0331151 0.0275024 0.917974
-0.0357289 0.0356967 0.870043
-0.0212151 0.0119057 0.883826
-0.0200588 0.0200223 0.82343
-0.0318158 0.0318023 0.955082
-0.0275147 0.0330818 0.917971
-0.0153544 0.0153334 0.918594
-0.0119269 0.021179 0.883826
-0.0357289 0.0356967 0.870043
-6.68966e-05 0.0471514 0.835754
-0.0200588 0.0200223 0.82343
-7.3076e-05 0.0268199 0.786421
-0.0275147 0.0330818 0.917971
-5.42648e-05 0.0357477 0.897472
-0.0119269 0.021179 0.883826
-6.2436e-05 0.025409 0.866611
-0.0212151 0.0119057 0.883826
-0.0200588 0.0200223 0.82343
-0.0235908 0.0110145 0.832131
-0.0267386 0.0267012 0.76456
-0.0153544 0.0153334 0.918594
-0.0119269 0.021179 0.883826
-0.0109512 0.0109234 0.868792
-0.0110423 0.0235521 0.832134
-0.0200588 0.0200223 0.82343
-7.3076e-05 0.0268199 0.786421
-0.0267386 0.0267012 0.76456
-7.11428e-05 0.0377634 0.725515
-0.0119269 0.021179 0.883826
-6.2436e-05 0.025409 0.866611
-0.0110423 0.0235521 0.832134
-6.58281e-05 0.0307006 0.815037
-7.58602e-05 2.70754e-05 0.782872
0.047029 1.74573e-05 0.835776
-8.15573e-05 2.91191e-05 0.731651
0.0266959 2.08038e-05 0.78646
-6.68966e-05 0.0471514 0.835754
0.035579 0.0356608 0.870057
-7.3076e-05 0.0268199 0.786421
0.0199027 0.0199959 0.823463
0.047029 1.74573e-05 0.835776
0.035627 7.66197e-06 0.89749
0.0266959 2.08038e-05 0.78646
0.0252788 1.27638e-05 0.866638
0.035579 0.0356608 0.870057
0.0329642 0.0274409 0.917978
0.0199027 0.0199959 0.823463
0.0210541 0.0118646 0.883846
-8.15573e-05 2.91191e-05 0.731651
0.0266959 2.08038e-05 0.78646
-7.533e-05 2.88259e-05 0.666726
0.0376352 2.22014e-05 0.72558
-7.3076e-05 0.0268199 0.786421
0.0199027 0.0199959 0.823463
-7.11428e-05 0.0377634 0.725515
0.026576 0.026669 0.764617
0.0266959 2.08038e-05 0.78646
0.0252788 1.27638e-05 0.866638
0.0376352 2.22014e-05 0.72558
0.0305504 1.60845e-05 0.815094
0.0199027 0.0199959 0.823463
0.0210541 0.0118646 0.883846
0.026576 0.026669 0.764617
0.0234089 0.0109757 0.832183
-6.68966e-05 0.0471514 0.835754
0.035579 0.0356608 0.870057
-7.3076e-05 0.0268199 0.786421
0.0199027 0.0199959 0.823463
-5.42648e-05 0.0357477 0.897472
0.0273968 0.0330479 0.917971
-6.2436e-05 0.025409 0.866611
0.0117985 0.0211525 0.883834
0.035579 0.0356608 0.870057
0.0329642 0.0274409 0.917978
0.0199027 0.0199959 0.823463
0.0210541 0.0118646 0.883846
0.0273968 0.0330479 0.917971
0.0316936 0.0317377 0.955069
0.0117985 0.0211525 0.883834
0.0152228 0.015288 0.918595
-7.3076e-05 0.0268199 0.786421
0.0199027 0.0199959 0.823463
-7.11428e-05 0.0377634 0.725515
0.026576 0.026669 0.764617
-6.2436e-05 0.025409 0.866611
0.0117985 0.0211525 0.883834
-6.58281e-05 0.0307006 0.815037
0.0109027 0.0235241 0.832158
0.0199027 0.0199959 0.823463
0.0210541 0.0118646 0.883846
0.026576 0.026669 0.764617
0.0234089 0.0109757 0.832183
0.0117985 0.0211525 0.883834
0.0152228 0.015288 0.918595
0.0109027 0.0235241 0.832158
0.0108013 0.0108843 0.868816
-0.031842 -0.0317139 0.955078
0.00415713 0.00427949 0.959436
-0.0153758 -0.0152529 0.918594
0.00796646 0.00808118 0.926495
-0.0275416 -0.0330058 0.917971
-0.00134554 0.0018066 0.920201
-0.0119495 -0.0211053 0.883831
0.00124428 -0.00135466 0.893365
0.00415713 0.00427949 0.959436
0.0394819 0.0395832 0.971052
0.00796646 0.00808118 0.926495
0.0365797 0.0366741 0.943331
-0.00134554 0.0018066 0.920201
0.0291118 0.0457909 0.948136
0.00124428 -0.00135466 0.893365
0.0220898 0.0435303 0.92132
-0.0153758 -0.0152529 0.918594
0.00796646 0.00808118 0.926495
-0.0109638 -0.0108472 0.868798
0.00335907 0.00346592 0.885484
-0.0119495 -0.0211053 0.883831
0.00124428 -0.00135466 0.893365
-0.0110549 -0.0234759 0.832149
-0.00540123 -0.0119807 0.850645
0.00796646 0.00808118 0.926495
0.0365797 0.0366741 0.943331
0.00335907 0.00346592 0.885484
0.0318801 0.0319712 0.910472
0.00124428 -0.00135466 0.893365
0.0220898 0.0435303 0.92132
-0.00540123 -0.0119807 0.850645
0.0172322 0.0359997 0.884378
-0.0275416 -0.0330058 0.917971
-0.00134554 0.0018066 0.920201
-0.0119495 -0.0211053 0.883831
0.00124428 -0.00135466 0.893365
-8.94782e-05 -0.0356861 0.897476
-8.55355e-05 -0.00258023 0.897072
-8.94082e-05 -0.0253449 0.86662
-8.22065e-05 -0.00917559 0.875759
-0.00134554 0.0018066 0.920201
0.0291118 0.0457909 0.948136
0.00124428 -0.00135466 0.893365
0.0220898 0.0435303 0.92132
-8.55355e-05 -0.00258023 0.897072
-6.86027e-05 0.0524277 0.937768
-8.22065e-05 -0.00917559 0.875759
-6.71132e-05 0.0477062 0.909146
-0.0119495 -0.0211053 0.883831
0.00124428 -0.00135466 0.893365
-0.0110549 -0.0234759 0.832149
-0.00540123 -0.0119807 0.850645
-8.94082e-05 -0.0253449 0.86662
-8.22065e-05 -0.00917559 0.875759
-8.46967e-05 -0.0306285 0.815058
-7.6353e-05 -0.0230594 0.831808
0.00124428 -0.00135466 0.893365
0.0220898 0.0435303 0.92132
-0.00540123 -0.0119807 0.850645
0.0172322 0.0359997 0.884378
-8.22065e-05 -0.00917559 0.875759
-6.71132e-05 0.0477062 0.909146
-7.6353e-05 -0.0230594 0.831808
-6.67376e-05 0.0376427 0.869433
0.0394819 0.0395832 0.971052
0.0538148 0.0538693 0.967719
0.0365797 0.0366741 0.943331
0.0563972 0.0564587 0.962057
0.0291118 0.0457909 0.948136
0.0460797 0.0734794 0.969668
0.0220898 0.0435303 0.92132
0.0372057 0.0831896 0.952096
0.0538148 0.0538693 0.967719
0 0 1
0.0563972 0.0564587 0.962057
0.0394608 0.0394833 0.990753
0.0460797 0.0734794 0.969668
0 0 1
0.0372057 0.0831896 0.952096
0.0239348 0.0602751 0.98879
0.0365797 0.0366741 0.943331
0.0563972 0.0564587 0.962057
0.0318801 0.0319712 0.910472
0.0580432 0.0581135 0.934236
0.0220898 0.0435303 0.92132
0.0372057 0.0831896 0.952096
0.0172322 0.0359997 0.884378
0.038715 0.0828112 0.91096
0.0563972 0.0564587 0.962057
0.0394608 0.0394833 0.990753
0.0580432 0.0581135 0.934236
0.0614106 0.061456 0.962929
0.0372057 0.0831896 0.952096
0.0239348 0.0602751 0.98879
0.038715 0.0828112 0.91096
0.0384499 0.0846497 0.9477
0.0291118 0.0457909 0.948136
0.0460797 0.0734794 0.969668
0.0220898 0.0435303 0.92132
0.0372057 0.0831896 0.952096
-6.86027e-05 0.0524277 0.937768
-3.95084e-05 0.0927878 0.963944
-6.71132e-05 0.0477062 0.909146
-4.54467e-05 0.10083 0.943843
0.0460797 0.0734794 0.969668
0 0 1
0.0372057 0.0831896 0.952096
0.0239348 0.0602751 0.98879
-3.95084e-05 0.0927878 0.963944
0 0 1
-4.54467e-05 0.10083 0.943843
-1.8466e-05 0.0718781 0.987023
0.0220898 0.0435303 0.92132
0.0372057 0.0831896 0.952096
0.0172322 0.0359997 0.884378
0.038715 0.0828112 0.91096
-6.71132e-05 0.0477062 0.909146
-4.54467e-05 0.10083 0.943843
-6.67376e-05 0.0376427 0.869433
-5.84812e-05 0.0978421 0.896425
0.0372057 0.0831896 0.952096
0.0239348 0.0602751 0.98879
0.038715 0.0828112 0.91096
0.0384499 0.0846497 0.9477
-4.54467e-05 0.10083 0.943843
-1.8466e-05 0.0718781 0.987023
-5.84812e-05 0.0978421 0.896425
-3.92058e-05 0.096164 0.938715
-8.94782e-05 -0.0356861 0.897476
-8.55355e-05 -0.00258023 0.897072
-8.94082e-05 -0.0253449 0.86662
-8.22065e-05 -0.00917559 0.875759
0.0273524 -0.0330075 0.917972
0.00116646 0.00180165 0.920204
0.0117668 -0.0211054 0.88384
-0.00141496 -0.00135012 0.893374
-8.55355e-05 -0.00258023 0.897072
-6.86027e-05 0.0524277 0.937768
-8.22065e-05 -0.00917559 0.875759
-6.71132e-05 0.0477062 0.909146
0.00116646 0.00180165 0.920204
-0.0292498 0.0457794 0.948132
-0.00141496 -0.00135012 0.893374
-0.0222253 0.043524 0.921325
-8.94082e-05 -0.0253449 0.86662
-8.22065e-05 -0.00917559 0.875759
-8.46967e-05 -0.0306285 0.815058
-7.6353e-05 -0.0230594 0.831808
0.0117668 -0.0211054 0.88384
-0.00141496 -0.00135012 0.893374
0.0108775 -0.0234663 0.832174
0.00523416 -0.0119603 0.850672
-8.22065e-05 -0.00917559 0.875759
-6.71132e-05 0.0477062 0.909146
-7.6353e-05 -0.0230594 0.831808
-6.67376e-05 0.0376427 0.869433
-0.00141496 -0.00135012 0.893374
-0.0222253 0.043524 0.921325
0.00523416 -0.0119603 0.850672
-0.0173711 0.0360021 0.884392
0.0273524 -0.0330075 0.917972
0.00116646 0.00180165 0.920204
0.0117668 -0.0211054 0.88384
-0.00141496 -0.00135012 0.893374
0.0316479 -0.0317191 0.955064
-0.00433438 0.00426373 0.959415
0.0151899 -0.0152601 0.918594
-0.00813975 0.00807196 0.926491
0.00116646 0.00180165 0.920204
-0.0292498 0.0457794 0.948132
-0.00141496 -0.00135012 0.893374
-0.0222253 0.043524 0.921325
-0.00433438 0.00426373 0.959415
-0.0396181 0.0395586 0.971012
-0.00813975 0.00807196 0.926491
-0.0367141 0.0366564 0.943319
0.0117668 -0.0211054 0.88384
-0.00141496 -0.00135012 0.893374
0.0108775 -0.0234663 0.832174
0.00523416 -0.0119603 0.850672
0.0151899 -0.0152601 0.918594
-0.00813975 0.00807196 0.926491
0.0107766 -0.0108442 0.868823
-0.00353719 0.00347383 0.885504
-0.00141496 -0.00135012 0.893374
-0.0222253 0.043524 0.921325
0.00523416 -0.0119603 0.850672
-0.0173711 0.0360021 0.884392
-0.00813975 0.00807196 0.926491
-0.0367141 0.0366564 0.943319
-0.00353719 0.00347383 0.885504
-0.032021 0.0319647 0.91048
-6.86027e-05 0.0524277 0.937768
-3.95084e-05 0.0927878 0.963944
-6.71132e-05 0.0477062 0.909146
-4.54467e-05 0.10083 0.943843
-0.0292498 0.0457794 0.948132
-0.0461459 0.0734627 0.969669
-0.0222253 0.043524 0.921325
-0.0372877 0.0831662 0.9521
-3.95084e-05 0.0927878 0.963944
0 0 1
-4.54467e-05 0.10083 0.943843
-1.8466e-05 0.0718781 0.987023
-0.0461459 0.0734627 0.969669
0 0 1
-0.0372877 0.0831662 0.9521
-0.0239643 0.0602612 0.988791
-6.71132e-05 0.0477062 0.909146
-4.54467e-05 0.10083 0.943843
-6.67376e-05 0.0376427 0.869433
-5.84812e-05 0.0978421 0.896425
-0.0222253 0.043524 0.921325
-0.0372877 0.0831662 0.9521
-0.0173711 0.0360021 0.884392
-0.0388111 0.0827765 0.910979
-4.54467e-05 0.10083 0.943843
-1.8466e-05 0.0718781 0.987023
-5.84812e-05 0.0978421 0.896425
-3.92058e-05 0.096164 0.938715
-0.0372877 0.0831662 0.9521
-0.0239643 0.0602612 0.988791
-0.0388111 0.0827765 0.910979
-0.0385133 0.0846213 0.947717
-0.0292498 0.0457794 0.948132
-0.0461459 0.0734627 0.969669
-0.0222253 0.043524 0.921325
-0.0372877 0.0831662 0.9521
-0.0396181 0.0395586 0.971012
-0.0538815 0.0538481 0.967689
-0.0367141 0.0366564 0.943319
-0.0564731 0.0564342 0.962045
-0.0461459 0.0734627 0.969669
0 0 1
-0.0372877 0.0831662 0.9521
-0.0239643 0.0602612 0.988791
-0.0538815 0.0538481 0.967689
0 0 1
-0.0564731 0.0564342 0.962045
-0.0394851 0.0394707 0.990749
-0.0222253 0.043524 0.921325
-0.0372877 0.0831662 0.9521
-0.0173711 0.0360021 0.884392
-0.0388111 0.0827765 0.910979
-0.0367141 0.0366564 0.943319
-0.0564731 0.0564342 0.962045
-0.032021 0.0319647 0.91048
-0.0581296 0.058084 0.934245
-0.0372877 0.0831662 0.9521
-0.0239643 0.0602612 0.988791
-0.0388111 0.0827765 0.910979
-0.0385133 0.0846213 0.947717
-0.0564731 0.0564342 0.962045
-0.0394851 0.0394707 0.990749
-0.0581296 0.058084 0.934245
-0.0614562 0.0614262 0.96294
0.0316479 -0.0317191 0.955064
-0.00433438 0.00426373 0.959415
0.0151899 -0.0152601 0.918594
-0.00813975 0.00807196 0.926491
0.0329406 -0.0274233 0.917977
-0.0018709 -0.00123539 0.920208
0.0210363 -0.0118378 0.883848
0.00127543 0.00134998 0.893381
-0.00433438 0.00426373 0.959415
-0.0396181 0.0395586 0.971012
-0.00813975 0.00807196 0.926491
-0.0367141 0.0366564 0.943319
-0.0018709 -0.00123539 0.920208
-0.0458363 0.0291926 0.948123
0.00127543 0.00134998 0.893381
-0.0435858 0.0221703 0.921325
0.0151899 -0.0152601 0.918594
-0.00813975 0.00807196 0.926491
0.0107766 -0.0108442 0.868823
-0.00353719 0.00347383 0.885504
0.0210363 -0.0118378 0.883848
0.00127543 0.00134998 0.893381
0.0233935 -0.0109403 0.832191
0.0118792 -0.00528468 0.850691
-0.00813975 0.00807196 0.926491
-0.0367141 0.0366564 0.943319
-0.00353719 0.00347383 0.885504
-0.032021 0.0319647 0.91048
0.00127543 0.00134998 0.893381
-0.0435858 0.0221703 0.921325
0.0118792 -0.00528468 0.850691
-0.0360713 0.0173253 0.884399
0.0329406 -0.0274233 0.917977
-0.0018709 -0.00123539 0.920208
0.0210363 -0.0118378 0.883848
0.00127543 0.00134998 0.893381
0.035627 7.66197e-06 0.89749
0.00251101 7.41646e-06 0.897091
0.0252788 1.27638e-05 0.866638
0.0090905 1.16603e-05 0.87578
-0.0018709 -0.00123539 0.920208
-0.0458363 0.0291926 0.948123
0.00127543 0.00134998 0.893381
-0.0435858 0.0221703 0.921325
0.00251101 7.41646e-06 0.897091
-0.0524842 6.59022e-06 0.937762
0.0090905 1.16603e-05 0.87578
-0.047776 9.81662e-06 0.909155
0.0210363 -0.0118378 0.883848
0.00127543 0.00134998 0.893381
0.0233935 -0.0109403 0.832191
0.0118792 -0.00528468 0.850691
0.0252788 1.27638e-05 0.866638
0.0090905 1.16603e-05 0.87578
0.0305504 1.60845e-05 0.815094
0.0229502 1.44129e-05 0.831858
0.00127543 0.00134998 0.893381
-0.0435858 0.0221703 0.921325
0.0118792 -0.00528468 0.850691
-0.0360713 0.0173253 0.884399
0.0090905 1.16603e-05 0.87578
-0.047776 9.81662e-06 0.909155
0.0229502 1.44129e-05 0.831858
-0.0377403 1.33859e-05 0.869458
-0.0396181 0.0395586 0.971012
-0.0538815 0.0538481 0.967689
-0.0367141 0.0366564 0.943319
-0.0564731 0.0564342 0.962045
-0.0458363 0.0291926 0.948123
-0.0734887 0.0461096 0.969658
-0.0435858 0.0221703 0.921325
-0.0831978 0.0372459 0.952099
-0.0538815 0.0538481 0.967689
0 0 1
-0.0564731 0.0564342 0.962045
-0.0394851 0.0394707 0.990749
-0.0734887 0.0461096 0.969658
0 0 1
-0.0831978 0.0372459 0.952099
-0.0602703 0.0239468 0.98879
-0.0367141 0.0366564 0.943319
-0.0564731 0.0564342 0.962045
-0.032021 0.0319647 0.91048
-0.0581296 0.058084 0.934245
-0.0435858 0.0221703 0.921325
-0.0831978 0.0372459 0.952099
-0.0360713 0.0173253 0.884399
-0.0828131 0.0387606 0.910987
-0.0564731 0.0564342 0.962045
-0.0394851 0.0394707 0.990749
-0.0581296 0.058084 0.934245
-0.0614562 0.0614262 0.96294
-0.0831978 0.0372459 0.952099
-0.0602703 0.0239468 0.98879
-0.0828131 0.0387606 0.910987
-0.0846421 0.0384761 0.947724
-0.0458363 0.0291926 0.948123
-0.0734887 0.0461096 0.969658
-0.0435858 0.0221703 0.921325
-0.0831978 0.0372459 0.952099
-0.0524842 6.59022e-06 0.937762
-0.0928003 3.83598e-06 0.963938
-0.047776 9.81662e-06 0.909155
-0.100845 6.44009e-06 0.943849
-0.0734887 0.0461096 0.969658
0 0 1
-0.0831978 0.0372459 0.952099
-0.0602703 0.0239468 0.98879
-0.0928003 3.83598e-06 0.963938
0 0 1
-0.100845 6.44009e-06 0.943849
-0.0718772 2.52953e-06 0.987025
-0.0435858 0.0221703 0.921325
-0.0831978 0.0372459 0.952099
-0.0360713 0.0173253 0.884399
-0.0828131 0.0387606 0.910987
-0.047776 9.81662e-06 0.909155
-0.100845 6.44009e-06 0.943849
-0.0377403 1.33859e-05 0.869458
-0.0978514 1.14327e-05 0.896457
-0.0831978 0.0372459 0.952099
-0.0602703 0.0239468 0.98879
-0.0828131 0.0387606 0.910987
-0.0846421 0.0384761 0.947724
-0.100845 6.44009e-06 0.943849
-0.0718772 2.52953e-06 0.987025
-0.0978514 1.14327e-05 0.896457
-0.0961666 7.96321e-06 0.938737
0.035627 7.66197e-06 0.89749
0.00251101 7.41646e-06 0.897091
0.0252788 1.27638e-05 0.866638
0.0090905 1.16603e-05 0.87578
0.0329642 0.0274409 0.917978
-0.00185152 0.00125283 0.92021
0.0210541 0.0118646 0.883846
0.00129296 -0.00132433 0.89338
0.00251101 7.41646e-06 0.897091
-0.0524842 6.59022e-06 0.937762
0.0090905 1.16603e-05 0.87578
-0.047776 9.81662e-06 0.909155
-0.00185152 0.00125283 0.92021
-0.0458233 -0.0291799 0.948128
0.00129296 -0.00132433 0.89338
-0.0435748 -0.0221503 0.921326
0.0252788 1.27638e-05 0.866638
0.0090905 1.16603e-05 0.87578
0.0305504 1.60845e-05 0.815094
0.0229502 1.44129e-05 0.831858
0.0210541 0.0118646 0.883846
0.00129296 -0.00132433 0.89338
0.0234089 0.0109757 0.832183