# vtk DataFile Version 3.0
#This file was generated by the deal.II library on 2014/11/24 at 23:16:17
ASCII
DATASET UNSTRUCTURED_GRID

POINTS 640 double
15 0 0
15 3.75 0
11.5 0 0
11.4839 2.8576 0
15 3.75 0
15 7.5 0
11.4839 2.8576 0
11.4678 5.71521 0
11.5 0 0
11.4839 2.8576 0
8 0 0
7.96778 1.96521 0
11.4839 2.8576 0
11.4678 5.71521 0
7.96778 1.96521 0
7.93557 3.93042 0
15 7.5 0
15 11.25 0
11.4678 5.71521 0
11.4473 8.57099 0
15 11.25 0
15 15 0
11.4473 8.57099 0
11.4268 11.4268 0
11.4678 5.71521 0
11.4473 8.57099 0
7.93557 3.93042 0
7.89456 5.89199 0
11.4473 8.57099 0
11.4268 11.4268 0
7.89456 5.89199 0
7.85355 7.85355 0
15 15 0
11.25 15 0
11.4268 11.4268 0
8.57099 11.4473 0
11.25 15 0
7.5 15 0
8.57099 11.4473 0
5.71521 11.4678 0
11.4268 11.4268 0
8.57099 11.4473 0
7.85355 7.85355 0
5.89199 7.89456 0
8.57099 11.4473 0
5.71521 11.4678 0
5.89199 7.89456 0
3.93042 7.93557 0
7.5 15 0
3.75 15 0
5.71521 11.4678 0
2.8576 11.4839 0
3.75 15 0
0 15 0
2.8576 11.4839 0
0 11.5 0
5.71521 11.4678 0
2.8576 11.4839 0
3.93042 7.93557 0
1.96521 7.96778 0
2.8576 11.4839 0
0 11.5 0
1.96521 7.96778 0
0 8 0
0 -15 0
3.75 -15 0
0 -11.5 0
2.8576 -11.4839 0
3.75 -15 0
7.5 -15 0
2.8576 -11.4839 0
5.71521 -11.4678 0
0 -11.5 0
2.8576 -11.4839 0
0 -8 0
1.96521 -7.96778 0
2.8576 -11.4839 0
5.71521 -11.4678 0
1.96521 -7.96778 0
3.93042 -7.93557 0
7.5 -15 0
11.25 -15 0
5.71521 -11.4678 0
8.57099 -11.4473 0
11.25 -15 0
15 -15 0
8.57099 -11.4473 0
11.4268 -11.4268 0
5.71521 -11.4678 0
8.57099 -11.4473 0
3.93042 -7.93557 0
5.89199 -7.89456 0
8.57099 -11.4473 0
11.4268 -11.4268 0
5.89199 -7.89456 0
7.85355 -7.85355 0
15 -15 0
15 -11.25 0
11.4268 -11.4268 0
11.4473 -8.57099 0
15 -11.25 0
15 -7.5 0
11.4473 -8.57099 0
11.4678 -5.71521 0
11.4268 -11.4268 0
11.4473 -8.57099 0
7.85355 -7.85355 0
7.89456 -5.89199 0
11.4473 -8.57099 0
11.4678 -5.71521 0
7.89456 -5.89199 0
7.93557 -3.93042 0
15 -7.5 0
15 -3.75 0
11.4678 -5.71521 0
11.4839 -2.8576 0
15 -3.75 0
15 0 0
11.4839 -2.8576 0
11.5 0 0
11.4678 -5.71521 0
11.4839 -2.8576 0
7.93557 -3.93042 0
7.96778 -1.96521 0
11.4839 -2.8576 0
11.5 0 0
7.96778 -1.96521 0
8 0 0
8 0 0
7.98389 0.982604 0
6.25 0 0
6.23552 0.76134 0
7.98389 0.982604 0
7.96778 1.96521 0
6.23552 0.76134 0
6.22103 1.52268 0
6.25 0 0
6.23552 0.76134 0
4.5 0 0
4.48714 0.540075 0
6.23552 0.76134 0
6.22103 1.52268 0
4.48714 0.540075 0
4.47428 1.08015 0
7.96778 1.96521 0
7.95168 2.94781 0
6.22103 1.52268 0
6.20184 2.28308 0
7.95168 2.94781 0
7.93557 3.93042 0
6.20184 2.28308 0
6.18265 3.04348 0
6.22103 1.52268 0
6.20184 2.28308 0
4.47428 1.08015 0
4.452 1.61835 0
6.20184 2.28308 0
6.18265 3.04348 0
4.452 1.61835 0
4.42972 2.15655 0
4.5 0 0
4.48714 0.540075 0
2.75 0 0
2.74116 0.319046 0
4.48714 0.540075 0
4.47428 1.08015 0
2.74116 0.319046 0
2.72753 0.63762 0
2.75 0 0
2.74116 0.319046 0
1 0 0
0.995185 0.0980172 0
2.74116 0.319046 0
2.72753 0.63762 0
0.995185 0.0980172 0
0.980785 0.19509 0
4.47428 1.08015 0
4.452 1.61835 0
2.72753 0.63762 0
2.70447 0.954317 0
4.452 1.61835 0
4.42972 2.15655 0
2.70447 0.954317 0
2.6768 1.26962 0
2.72753 0.63762 0
2.70447 0.954317 0
0.980785 0.19509 0
0.95694 0.290285 0
2.70447 0.954317 0
2.6768 1.26962 0
0.95694 0.290285 0
0.92388 0.382683 0
7.93557 3.93042 0
7.91506 4.9112 0
6.18265 3.04348 0
6.15572 3.80068 0
7.91506 4.9112 0
7.89456 5.89199 0
6.15572 3.80068 0
6.12879 4.55788 0
6.18265 3.04348 0
6.15572 3.80068 0
4.42972 2.15655 0
4.39637 2.69016 0
6.15572 3.80068 0
6.12879 4.55788 0
4.39637 2.69016 0
4.36302 3.22378 0
7.89456 5.89199 0
7.87406 6.87277 0
6.12879 4.55788 0
6.09786 5.31241 0
7.87406 6.87277 0
7.85355 7.85355 0
6.09786 5.31241 0
6.06694 6.06694 0
6.12879 4.55788 0
6.09786 5.31241 0
4.36302 3.22378 0
4.32167 3.75205 0
6.09786 5.31241 0
6.06694 6.06694 0
4.32167 3.75205 0
4.28033 4.28033 0
4.42972 2.15655 0
4.39637 2.69016 0
2.6768 1.26962 0
2.63915 1.58078 0
4.39637 2.69016 0
4.36302 3.22378 0
2.63915 1.58078 0
2.59724 1.88967 0
2.6768 1.26962 0
2.63915 1.58078 0
0.92388 0.382683 0
0.881921 0.471397 0
2.63915 1.58078 0
2.59724 1.88967 0
0.881921 0.471397 0
0.83147 0.55557 0
4.36302 3.22378 0
4.32167 3.75205 0
2.59724 1.88967 0
2.54734 2.19322 0
4.32167 3.75205 0
4.28033 4.28033 0
2.54734 2.19322 0
2.49372 2.49372 0
2.59724 1.88967 0
2.54734 2.19322 0
0.83147 0.55557 0
0.77301 0.634393 0
2.54734 2.19322 0
2.49372 2.49372 0
0.77301 0.634393 0
0.707107 0.707107 0
7.85355 7.85355 0
6.87277 7.87406 0
6.06694 6.06694 0
5.31241 6.09786 0
6.87277 7.87406 0
5.89199 7.89456 0
5.31241 6.09786 0
4.55788 6.12879 0
6.06694 6.06694 0
5.31241 6.09786 0
4.28033 4.28033 0
3.75205 4.32167 0
5.31241 6.09786 0
4.55788 6.12879 0
3.75205 4.32167 0
3.22378 4.36302 0
5.89199 7.89456 0
4.9112 7.91506 0
4.55788 6.12879 0
3.80068 6.15572 0
4.9112 7.91506 0
3.93042 7.93557 0
3.80068 6.15572 0
3.04348 6.18265 0
4.55788 6.12879 0
3.80068 6.15572 0
3.22378 4.36302 0
2.69016 4.39637 0
3.80068 6.15572 0
3.04348 6.18265 0
2.69016 4.39637 0
2.15655 4.42972 0
4.28033 4.28033 0
3.75205 4.32167 0
2.49372 2.49372 0
2.19322 2.54734 0
3.75205 4.32167 0
3.22378 4.36302 0
2.19322 2.54734 0
1.88967 2.59724 0
2.49372 2.49372 0
2.19322 2.54734 0
0.707107 0.707107 0
0.634393 0.77301 0
2.19322 2.54734 0
1.88967 2.59724 0
0.634393 0.77301 0
0.55557 0.83147 0
3.22378 4.36302 0
2.69016 4.39637 0
1.88967 2.59724 0
1.58078 2.63915 0
2.69016 4.39637 0
2.15655 4.42972 0
1.58078 2.63915 0
1.26962 2.6768 0
1.88967 2.59724 0
1.58078 2.63915 0
0.55557 0.83147 0
0.471397 0.881921 0
1.58078 2.63915 0
1.26962 2.6768 0
0.471397 0.881921 0
0.382683 0.92388 0
3.93042 7.93557 0
2.94781 7.95168 0
3.04348 6.18265 0
2.28273 6.20007 0
2.94781 7.95168 0
1.96521 7.96778 0
2.28273 6.20007 0
1.52198 6.2175 0
3.04348 6.18265 0
2.28273 6.20007 0
2.15655 4.42972 0
1.61765 4.44847 0
2.28273 6.20007 0
1.52198 6.2175 0
1.61765 4.44847 0
1.07874 4.46722 0
1.96521 7.96778 0
0.982604 7.98389 0
1.52198 6.2175 0
0.760988 6.23375 0
0.982604 7.98389 0
0 8 0
0.760988 6.23375 0
0 6.25 0
1.52198 6.2175 0
0.760988 6.23375 0
1.07874 4.46722 0
0.539372 4.48361 0
0.760988 6.23375 0
0 6.25 0
0.539372 4.48361 0
0 4.5 0
2.15655 4.42972 0
1.61765 4.44847 0
1.26962 2.6768 0
0.953966 2.70271 0
1.61765 4.44847 0
1.07874 4.46722 0
0.953966 2.70271 0
0.636917 2.724 0
1.26962 2.6768 0
0.953966 2.70271 0
0.382683 0.92388 0
0.290285 0.95694 0
0.953966 2.70271 0
0.636917 2.724 0
0.290285 0.95694 0
0.19509 0.980785 0
1.07874 4.46722 0
0.539372 4.48361 0
0.636917 2.724 0
0.318518 2.7376 0
0.539372 4.48361 0
0 4.5 0
0.318518 2.7376 0
0 2.75 0
0.636917 2.724 0
0.318518 2.7376 0
0.19509 0.980785 0
0.0980172 0.995185 0
0.318518 2.7376 0
0 2.75 0
0.0980172 0.995185 0
0 1 0
0 -8 0
0.982604 -7.98389 0
0 -6.25 0
0.760988 -6.23375 0
0.982604 -7.98389 0
1.96521 -7.96778 0
0.760988 -6.23375 0
1.52198 -6.2175 0
0 -6.25 0
0.760988 -6.23375 0
0 -4.5 0
0.539372 -4.48361 0
0.760988 -6.23375 0
1.52198 -6.2175 0
0.539372 -4.48361 0
1.07874 -4.46722 0
1.96521 -7.96778 0
2.94781 -7.95168 0
1.52198 -6.2175 0
2.28273 -6.20007 0
2.94781 -7.95168 0
3.93042 -7.93557 0
2.28273 -6.20007 0
3.04348 -6.18265 0
1.52198 -6.2175 0
2.28273 -6.20007 0
1.07874 -4.46722 0
1.61765 -4.44847 0
2.28273 -6.20007 0
3.04348 -6.18265 0
1.61765 -4.44847 0
2.15655 -4.42972 0
0 -4.5 0
0.539372 -4.48361 0
0 -2.75 0
0.318518 -2.7376 0
0.539372 -4.48361 0
1.07874 -4.46722 0
0.318518 -2.7376 0
0.636917 -2.724 0
0 -2.75 0
0.318518 -2.7376 0
0 -1 0
0.0980172 -0.995185 0
0.318518 -2.7376 0
0.636917 -2.724 0
0.0980172 -0.995185 0
0.19509 -0.980785 0
1.07874 -4.46722 0
1.61765 -4.44847 0
0.636917 -2.724 0
0.953966 -2.70271 0
1.61765 -4.44847 0
2.15655 -4.42972 0
0.953966 -2.70271 0
1.26962 -2.6768 0
0.636917 -2.724 0
0.953966 -2.70271 0
0.19509 -0.980785 0
0.290285 -0.95694 0
0.953966 -2.70271 0
1.26962 -2.6768 0
0.290285 -0.95694 0
0.382683 -0.92388 0
3.93042 -7.93557 0
4.9112 -7.91506 0
3.04348 -6.18265 0
3.80068 -6.15572 0
4.9112 -7.91506 0
5.89199 -7.89456 0
3.80068 -6.15572 0
4.55788 -6.12879 0
3.04348 -6.18265 0
3.80068 -6.15572 0
2.15655 -4.42972 0
2.69016 -4.39637 0
3.80068 -6.15572 0
4.55788 -6.12879 0
2.69016 -4.39637 0
3.22378 -4.36302 0
5.89199 -7.89456 0
6.87277 -7.87406 0
4.55788 -6.12879 0
5.31241 -6.09786 0
6.87277 -7.87406 0
7.85355 -7.85355 0
5.31241 -6.09786 0
6.06694 -6.06694 0
4.55788 -6.12879 0
5.31241 -6.09786 0
3.22378 -4.36302 0
3.75205 -4.32167 0
5.31241 -6.09786 0
6.06694 -6.06694 0
3.75205 -4.32167 0
4.28033 -4.28033 0
2.15655 -4.42972 0
2.69016 -4.39637 0
1.26962 -2.6768 0
1.58078 -2.63915 0
2.69016 -4.39637 0
3.22378 -4.36302 0
1.58078 -2.63915 0
1.88967 -2.59724 0
1.26962 -2.6768 0
1.58078 -2.63915 0
0.382683 -0.92388 0
0.471397 -0.881921 0
1.58078 -2.63915 0
1.88967 -2.59724 0
0.471397 -0.881921 0
0.55557 -0.83147 0
3.22378 -4.36302 0
3.75205 -4.32167 0
1.88967 -2.59724 0
2.19322 -2.54734 0
3.75205 -4.32167 0
4.28033 -4.28033 0
2.19322 -2.54734 0
2.49372 -2.49372 0
1.88967 -2.59724 0
2.19322 -2.54734 0
0.55557 -0.83147 0
0.634393 -0.77301 0
2.19322 -2.54734 0
2.49372 -2.49372 0
0.634393 -0.77301 0
0.707107 -0.707107 0
7.85355 -7.85355 0
7.87406 -6.87277 0
6.06694 -6.06694 0
6.09786 -5.31241 0
7.87406 -6.87277 0
7.89456 -5.89199 0
6.09786 -5.31241 0
6.12879 -4.55788 0
6.06694 -6.06694 0
6.09786 -5.31241 0
4.28033 -4.28033 0
4.32167 -3.75205 0
6.09786 -5.31241 0
6.12879 -4.55788 0
4.32167 -3.75205 0
4.36302 -3.22378 0
7.89456 -5.89199 0
7.91506 -4.9112 0
6.12879 -4.55788 0
6.15572 -3.80068 0
7.91506 -4.9112 0
7.93557 -3.93042 0
6.15572 -3.80068 0
6.18265 -3.04348 0
6.12879 -4.55788 0
6.15572 -3.80068 0
4.36302 -3.22378 0
4.39637 -2.69016 0
6.15572 -3.80068 0
6.18265 -3.04348 0
4.39637 -2.69016 0
4.42972 -2.15655 0
4.28033 -4.28033 0
4.32167 -3.75205 0
2.49372 -2.49372 0
2.54734 -2.19322 0
4.32167 -3.75205 0
4.36302 -3.22378 0
2.54734 -2.19322 0
2.59724 -1.88967 0
2.49372 -2.49372 0
2.54734 -2.19322 0
0.707107 -0.707107 0
0.77301 -0.634393 0
2.54734 -2.19322 0
2.59724 -1.88967 0
0.77301 -0.634393 0
0.83147 -0.55557 0
4.36302 -3.22378 0
4.39637 -2.69016 0
2.59724 -1.88967 0
2.63915 -1.58078 0
4.39637 -2.69016 0
4.42972 -2.15655 0
2.63915 -1.58078 0
2.6768 -1.26962 0
2.59724 -1.88967 0
2.63915 -1.58078 0
0.83147 -0.55557 0
0.881921 -0.471397 0
2.63915 -1.58078 0
2.6768 -1.26962 0
0.881921 -0.471397 0
0.92388 -0.382683 0
7.93557 -3.93042 0
7.95168 -2.94781 0
6.18265 -3.04348 0
6.20184 -2.28308 0
7.95168 -2.94781 0
7.96778 -1.96521 0
6.20184 -2.28308 0
6.22103 -1.52268 0
6.18265 -3.04348 0
6.20184 -2.28308 0
4.42972 -2.15655 0
4.452 -1.61835 0
6.20184 -2.28308 0
6.22103 -1.52268 0
4.452 -1.61835 0
4.47428 -1.08015 0
7.96778 -1.96521 0
7.98389 -0.982604 0
6.22103 -1.52268 0
6.23552 -0.76134 0
7.98389 -0.982604 0
8 0 0
6.23552 -0.76134 0
6.25 0 0
6.22103 -1.52268 0
6.23552 -0.76134 0
4.47428 -1.08015 0
4.48714 -0.540075 0
6.23552 -0.76134 0
6.25 0 0
4.48714 -0.540075 0
4.5 0 0
4.42972 -2.15655 0
4.452 -1.61835 0
2.6768 -1.26962 0
2.70447 -0.954317 0
4.452 -1.61835 0
4.47428 -1.08015 0
2.70447 -0.954317 0
2.72753 -0.63762 0
2.6768 -1.26962 0
2.70447 -0.954317 0
0.92388 -0.382683 0
0.95694 -0.290285 0
2.70447 -0.954317 0
2.72753 -0.63762 0
0.95694 -0.290285 0
0.980785 -0.19509 0
4.47428 -1.08015 0
4.48714 -0.540075 0
2.72753 -0.63762 0
2.74116 -0.319046 0
4.48714 -0.540075 0
4.5 0 0
2.74116 -0.319046 0
2.75 0 0
2.72753 -0.63762 0
2.74116 -0.319046 0
0.980785 -0.19509 0
0.995185 -0.0980172 0
2.74116 -0.319046 0
2.75 0 0
0.995185 -0.0980172 0
1 0 0

CELLS 160 800
4	0	1	3	2
4	4	5	7	6
4	8	9	11	10
4	12	13	15	14
4	16	17	19	18
4	20	21	23	22
4	24	25	27	26
4	28	29	31	30
4	32	33	35	34
4	36	37	39	38
4	40	41	43	42
4	44	45	47	46
4	48	49	51	50
4	52	53	55	54
4	56	57	59	58
4	60	61	63	62
4	64	65	67	66
4	68	69	71	70
4	72	73	75	74
4	76	77	79	78
4	80	81	83	82
4	84	85	87	86
4	88	89	91	90
4	92	93	95	94
4	96	97	99	98
4	100	101	103	102
4	104	105	107	106
4	108	109	111	110
4	112	113	115	114
4	116	117	119	118
4	120	121	123	122
4	124	125	127	126
4	128	129	131	130
4	132	133	135	134
4	136	137	139	138
4	140	141	143	142
4	144	145	147	146
4	148	149	151	150
4	152	153	155	154
4	156	157	159	158
4	160	161	163	162
4	164	165	167	166
4	168	169	171	170
4	172	173	175	174
4	176	177	179	178
4	180	181	183	182
4	184	185	187	186
4	188	189	191	190
4	192	193	195	194
4	196	197	199	198
4	200	201	203	202
4	204	205	207	206
4	208	209	211	210
4	212	213	215	214
4	216	217	219	218
4	220	221	223	222
4	224	225	227	226
4	228	229	231	230
4	232	233	235	234
4	236	237	239	238
4	240	241	243	242
4	244	245	247	246
4	248	249	251	250
4	252	253	255	254
4	256	257	259	258
4	260	261	263	262
4	264	265	267	266
4	268	269	271	270
4	272	273	275	274
4	276	277	279	278
4	280	281	283	282
4	284	285	287	286
4	288	289	291	290
4	292	293	295	294
4	296	297	299	298
4	300	301	303	302
4	304	305	307	306
4	308	309	311	310
4	312	313	315	314
4	316	317	319	318
4	320	321	323	322
4	324	325	327	326
4	328	329	331	330
4	332	333	335	334
4	336	337	339	338
4	340	341	343	342
4	344	345	347	346
4	348	349	351	350
4	352	353	355	354
4	356	357	359	358
4	360	361	363	362
4	364	365	367	366
4	368	369	371	370
4	372	373	375	374
4	376	377	379	378
4	380	381	383	382
4	384	385	387	386
4	388	389	391	390
4	392	393	395	394
4	396	397	399	398
4	400	401	403	402
4	404	405	407	406
4	408	409	411	410
4	412	413	415	414
4	416	417	419	418
4	420	421	423	422
4	424	425	427	426
4	428	429	431	430
4	432	433	435	434
4	436	437	439	438
4	440	441	443	442
4	444	445	447	446
4	448	449	451	450
4	452	453	455	454
4	456	457	459	458
4	460	461	463	462
4	464	465	467	466
4	468	469	471	470
4	472	473	475	474
4	476	477	479	478
4	480	481	483	482
4	484	485	487	486
4	488	489	491	490
4	492	493	495	494
4	496	497	499	498
4	500	501	503	502
4	504	505	507	506
4	508	509	511	510
4	512	513	515	514
4	516	517	519	518
4	520	521	523	522
4	524	525	527	526
4	528	529	531	530
4	532	533	535	534
4	536	537	539	538
4	540	541	543	542
4	544	545	547	546
4	548	549	551	550
4	552	553	555	554
4	556	557	559	558
4	560	561	563	562
4	564	565	567	566
4	568	569	571	570
4	572	573	575	574
4	576	577	579	578
4	580	581	583	582
4	584	585	587	586
4	588	589	591	590
4	592	593	595	594
4	596	597	599	598
4	600	601	603	602
4	604	605	607	606
4	608	609	611	610
4	612	613	615	614
4	616	617	619	618
4	620	621	623	622
4	624	625	627	626
4	628	629	631	630
4	632	633	635	634
4	636	637	639	638

CELL_TYPES 160
 9 9 9 9 9 9 9 9 9 9 9 9 9 9 9 9 9 9 9 9 9 9 9 9 9 9 9 9 9 9 9 9 9 9 9 9 9 9 9 9 9 9 9 9 9 9 9 9 9 9 9 9 9 9 9 9 9 9 9 9 9 9 9 9 9 9 9 9 9 9 9 9 9 9 9 9 9 9 9 9 9 9 9 9 9 9 9 9 9 9 9 9 9 9 9 9 9 9 9 9 9 9 9 9 9 9 9 9 9 9 9 9 9 9 9 9 9 9 9 9 9 9 9 9 9 9 9 9 9 9 9 9 9 9 9 9 9 9 9 9 9 9 9 9 9 9 9 9 9 9 9 9 9 9 9 9 9 9 9 9
POINT_DATA 640
VECTORS velocity double
0.0377353 0.936934 0
0.0148405 0.92202 0
0.0334581 0.917692 0
0.00995793 0.904839 0
0.0148405 0.92202 0
-0.000780812 0.909164 0
0.00995793 0.904839 0
-0.0051286 0.894059 0
0.0334581 0.917692 0
0.00995793 0.904839 0
0.0263259 0.890784 0
0.000600857 0.877499 0
0.00995793 0.904839 0
-0.0051286 0.894059 0
0.000600857 0.877499 0
-0.0156793 0.864296 0
-0.000780812 0.909164 0
-0.0112341 0.904079 0
-0.0051286 0.894059 0
-0.0117429 0.887837 0
-0.0112341 0.904079 0
-0.023946 0.905743 0
-0.0117429 0.887837 0
-0.0157684 0.886261 0
-0.0051286 0.894059 0
-0.0117429 0.887837 0
-0.0156793 0.864296 0
-0.0214165 0.855438 0
-0.0117429 0.887837 0
-0.0157684 0.886261 0
-0.0214165 0.855438 0
-0.0210874 0.85201 0
-0.023946 0.905743 0
-0.0278239 0.888976 0
-0.0157684 0.886261 0
-0.0179707 0.862668 0
-0.0278239 0.888976 0
-0.0285698 0.864651 0
-0.0179707 0.862668 0
-0.0174591 0.834048 0
-0.0157684 0.886261 0
-0.0179707 0.862668 0
-0.0210874 0.85201 0
-0.026018 0.823981 0
-0.0179707 0.862668 0
-0.0174591 0.834048 0
-0.026018 0.823981 0
-0.0262055 0.792184 0
-0.0285698 0.864651 0
-0.019273 0.839959 0
-0.0174591 0.834048 0
-0.0114931 0.808437 0
-0.019273 0.839959 0
0.000284831 0.829027 0
-0.0114931 0.808437 0
9.71961e-05 0.797712 0
-0.0174591 0.834048 0
-0.0114931 0.808437 0
-0.0262055 0.792184 0
-0.0173281 0.764354 0
-0.0114931 0.808437 0
9.71961e-05 0.797712 0
-0.0173281 0.764354 0
0.000104086 0.753108 0
0 1 0
0 1 0
-2.4085e-05 0.945714 0
0.0219257 0.950962 0
0 1 0
0 1 0
0.0219257 0.950962 0
0.0366076 0.962539 0
-2.4085e-05 0.945714 0
0.0219257 0.950962 0
-0.000111544 0.869931 0
0.0299076 0.878858 0
0.0219257 0.950962 0
0.0366076 0.962539 0
0.0299076 0.878858 0
0.0507781 0.900988 0
0 1 0
0 1 0
0.0366076 0.962539 0
0.0440094 0.973149 0
0 1 0
0 1 0
0.0440094 0.973149 0
0.049022 0.978483 0
0.0366076 0.962539 0
0.0440094 0.973149 0
0.0507781 0.900988 0
0.0615341 0.924288 0
0.0440094 0.973149 0
0.049022 0.978483 0
0.0615341 0.924288 0
0.0659785 0.941883 0
0 1 0
0.0538732 0.962908 0
0.049022 0.978483 0
0.0677529 0.962314 0
0.0538732 0.962908 0
0.0665184 0.957466 0
0.0677529 0.962314 0
0.069159 0.944534 0
0.049022 0.978483 0
0.0677529 0.962314 0
0.0659785 0.941883 0
0.0709679 0.923292 0
0.0677529 0.962314 0
0.069159 0.944534 0
0.0709679 0.923292 0
0.0673825 0.910058 0
0.0665184 0.957466 0
0.0592158 0.947766 0
0.069159 0.944534 0
0.0565078 0.930448 0
0.0592158 0.947766 0
0.0377353 0.936934 0
0.0565078 0.930448 0
0.0334581 0.917692 0
0.069159 0.944534 0
0.0565078 0.930448 0
0.0673825 0.910058 0
0.0518032 0.900411 0
0.0565078 0.930448 0
0.0334581 0.917692 0
0.0518032 0.900411 0
0.0263259 0.890784 0
0.0263259 0.890784 0
0.0127365 0.884471 0
0.02144 0.864794 0
0.00562878 0.858893 0
0.0127365 0.884471 0
0.000600857 0.877499 0
0.00562878 0.858893 0
-0.00842224 0.851924 0
0.02144 0.864794 0
0.00562878 0.858893 0
0.0157334 0.816186 0
-0.00459023 0.810877 0
0.00562878 0.858893 0
-0.00842224 0.851924 0
-0.00459023 0.810877 0
-0.0226228 0.803813 0
0.000600857 0.877499 0
-0.00898936 0.870559 0
-0.00842224 0.851924 0
-0.0194695 0.844581 0
-0.00898936 0.870559 0
-0.0156793 0.864296 0
-0.0194695 0.844581 0
-0.0270617 0.837845 0
-0.00842224 0.851924 0
-0.0194695 0.844581 0
-0.0226228 0.803813 0
-0.0367123 0.795728 0
-0.0194695 0.844581 0
-0.0270617 0.837845 0
-0.0367123 0.795728 0
-0.0460342 0.788251 0
0.0157334 0.816186 0
-0.00459023 0.810877 0
0.00863811 0.69869 0
-0.020532 0.694474 0
-0.00459023 0.810877 0
-0.0226228 0.803813 0
-0.020532 0.694474 0
-0.0475265 0.687854 0
0.00863811 0.69869 0
-0.020532 0.694474 0
0 0 0
0 0 0
-0.020532 0.694474 0
-0.0475265 0.687854 0
0 0 0
0 0 0
-0.0226228 0.803813 0
-0.0367123 0.795728 0
-0.0475265 0.687854 0
-0.0705538 0.679198 0
-0.0367123 0.795728 0
-0.0460342 0.788251 0
-0.0705538 0.679198 0
-0.0880833 0.669598 0
-0.0475265 0.687854 0
-0.0705538 0.679198 0
0 0 0
0 0 0
-0.0705538 0.679198 0
-0.0880833 0.669598 0
0 0 0
0 0 0
-0.0156793 0.864296 0
-0.0196217 0.859157 0
-0.0270617 0.837845 0
-0.0315129 0.832162 0
-0.0196217 0.859157 0
-0.0214165 0.855438 0
-0.0315129 0.832162 0
-0.0332819 0.82794 0
-0.0270617 0.837845 0
-0.0315129 0.832162 0
-0.0460342 0.788251 0
-0.0511755 0.782124 0
-0.0315129 0.832162 0
-0.0332819 0.82794 0
-0.0511755 0.782124 0
-0.0531732 0.77825 0
-0.0214165 0.855438 0
-0.0216448 0.85314 0
-0.0332819 0.82794 0
-0.0331033 0.825212 0
-0.0216448 0.85314 0
-0.0210874 0.85201 0
-0.0331033 0.825212 0
-0.0315873 0.823771 0
-0.0332819 0.82794 0
-0.0331033 0.825212 0
-0.0531732 0.77825 0
-0.0533523 0.775896 0
-0.0331033 0.825212 0
-0.0315873 0.823771 0
-0.0533523 0.775896 0
-0.0512331 0.774002 0
-0.0460342 0.788251 0
-0.0511755 0.782124 0
-0.0880833 0.669598 0
-0.0995316 0.659582 0
-0.0511755 0.782124 0
-0.0531732 0.77825 0
-0.0995316 0.659582 0
-0.104077 0.650319 0
-0.0880833 0.669598 0
-0.0995316 0.659582 0
0 0 0
0 0 0
-0.0995316 0.659582 0
-0.104077 0.650319 0
0 0 0
0 0 0
-0.0531732 0.77825 0
-0.0533523 0.775896 0
-0.104077 0.650319 0
-0.101513 0.642392 0
-0.0533523 0.775896 0
-0.0512331 0.774002 0
-0.101513 0.642392 0
-0.0910636 0.637322 0
-0.104077 0.650319 0
-0.101513 0.642392 0
0 0 0
0 0 0
-0.101513 0.642392 0
-0.0910636 0.637322 0
0 0 0
0 0 0
-0.0210874 0.85201 0
-0.0238399 0.838722 0
-0.0315873 0.823771 0
-0.0351232 0.808008 0
-0.0238399 0.838722 0
-0.026018 0.823981 0
-0.0351232 0.808008 0
-0.0375357 0.790626 0
-0.0315873 0.823771 0
-0.0351232 0.808008 0
-0.0512331 0.774002 0
-0.0551021 0.754874 0
-0.0351232 0.808008 0
-0.0375357 0.790626 0
-0.0551021 0.754874 0
-0.0569781 0.73205 0
-0.026018 0.823981 0
-0.027008 0.808254 0
-0.0375357 0.790626 0
-0.0382635 0.772102 0
-0.027008 0.808254 0
-0.0262055 0.792184 0
-0.0382635 0.772102 0
-0.036484 0.753335 0
-0.0375357 0.790626 0
-0.0382635 0.772102 0
-0.0569781 0.73205 0
-0.056542 0.707927 0
-0.0382635 0.772102 0
-0.036484 0.753335 0
-0.056542 0.707927 0
-0.0530659 0.683897 0
-0.0512331 0.774002 0
-0.0551021 0.754874 0
-0.0910636 0.637322 0
-0.0999861 0.611854 0
-0.0551021 0.754874 0
-0.0569781 0.73205 0
-0.0999861 0.611854 0
-0.104989 0.578533 0
-0.0910636 0.637322 0
-0.0999861 0.611854 0
0 0 0
0 0 0
-0.0999861 0.611854 0
-0.104989 0.578533 0
0 0 0
0 0 0
-0.0569781 0.73205 0
-0.056542 0.707927 0
-0.104989 0.578533 0
-0.104055 0.540362 0
-0.056542 0.707927 0
-0.0530659 0.683897 0
-0.104055 0.540362 0
-0.0957199 0.50185 0
-0.104989 0.578533 0
-0.104055 0.540362 0
0 0 0
0 0 0
-0.104055 0.540362 0
-0.0957199 0.50185 0
0 0 0
0 0 0
-0.0262055 0.792184 0
-0.0230766 0.777086 0
-0.036484 0.753335 0
-0.0316462 0.735499 0
-0.0230766 0.777086 0
-0.0173281 0.764354 0
-0.0316462 0.735499 0
-0.0235342 0.720731 0
-0.036484 0.753335 0
-0.0316462 0.735499 0
-0.0530659 0.683897 0
-0.0458377 0.660676 0
-0.0316462 0.735499 0
-0.0235342 0.720731 0
-0.0458377 0.660676 0
-0.0340299 0.641247 0
-0.0173281 0.764354 0
-0.0093562 0.756072 0
-0.0235342 0.720731 0
-0.0125789 0.710994 0
-0.0093562 0.756072 0
0.000104086 0.753108 0
-0.0125789 0.710994 0
3.10749e-05 0.707897 0
-0.0235342 0.720731 0
-0.0125789 0.710994 0
-0.0340299 0.641247 0
-0.018168 0.628408 0
-0.0125789 0.710994 0
3.10749e-05 0.707897 0
-0.018168 0.628408 0
3.16642e-05 0.624564 0
-0.0530659 0.683897 0
-0.0458377 0.660676 0
-0.0957199 0.50185 0
-0.0801414 0.465837 0
-0.0458377 0.660676 0
-0.0340299 0.641247 0
-0.0801414 0.465837 0
-0.0576728 0.437306 0
-0.0957199 0.50185 0
-0.0801414 0.465837 0
0 0 0
0 0 0
-0.0801414 0.465837 0
-0.0576728 0.437306 0
0 0 0
0 0 0
-0.0340299 0.641247 0
-0.018168 0.628408 0
-0.0576728 0.437306 0
-0.0301651 0.418973 0
-0.018168 0.628408 0
3.16642e-05 0.624564 0
-0.0301651 0.418973 0
3.32228e-05 0.414193 0
-0.0576728 0.437306 0
-0.0301651 0.418973 0
0 0 0
0 0 0
-0.0301651 0.418973 0
3.32228e-05 0.414193 0
0 0 0
0 0 0
-0.000111544 0.869931 0
0.0156817 0.872175 0
-3.19798e-05 0.798539 0
0.0180552 0.801249 0
0.0156817 0.872175 0
0.0299076 0.878858 0
0.0180552 0.801249 0
0.034417 0.810259 0
-3.19798e-05 0.798539 0
0.0180552 0.801249 0
-3.28957e-05 0.689872 0
0.022332 0.693468 0
0.0180552 0.801249 0
0.034417 0.810259 0
0.022332 0.693468 0
0.0422885 0.706053 0
0.0299076 0.878858 0
0.0417581 0.889117 0
0.034417 0.810259 0
0.0478152 0.82393 0
0.0417581 0.889117 0
0.0507781 0.900988 0
0.0478152 0.82393 0
0.0577811 0.8403 0
0.034417 0.810259 0
0.0478152 0.82393 0
0.0422885 0.706053 0
0.0580721 0.725121 0
0.0478152 0.82393 0
0.0577811 0.8403 0
0.0580721 0.725121 0
0.0691585 0.747836 0
-3.28957e-05 0.689872 0
0.022332 0.693468 0
-3.52146e-05 0.449078 0
0.0332472 0.453843 0
0.022332 0.693468 0
0.0422885 0.706053 0
0.0332472 0.453843 0
0.063703 0.472554 0
-3.52146e-05 0.449078 0
0.0332472 0.453843 0
0 0 0
0 0 0
0.0332472 0.453843 0
0.063703 0.472554 0
0 0 0
0 0 0
0.0422885 0.706053 0
0.0580721 0.725121 0
0.063703 0.472554 0
0.0888767 0.501606 0
0.0580721 0.725121 0
0.0691585 0.747836 0
0.0888767 0.501606 0
0.106863 0.538168 0
0.063703 0.472554 0
0.0888767 0.501606 0
0 0 0
0 0 0
0.0888767 0.501606 0
0.106863 0.538168 0
0 0 0
0 0 0
0.0507781 0.900988 0
0.0571962 0.913073 0
0.0577811 0.8403 0
0.0645001 0.857118 0
0.0571962 0.913073 0
0.0615341 0.924288 0
0.0645001 0.857118 0
0.0685183 0.873327 0
0.0577811 0.8403 0
0.0645001 0.857118 0
0.0691585 0.747836 0
0.0763694 0.770979 0
0.0645001 0.857118 0
0.0685183 0.873327 0
0.0763694 0.770979 0
0.0804697 0.794057 0
0.0615341 0.924288 0
0.0642818 0.934035 0
0.0685183 0.873327 0
0.0706745 0.888035 0
0.0642818 0.934035 0
0.0659785 0.941883 0
0.0706745 0.888035 0
0.0715522 0.900857 0
0.0685183 0.873327 0
0.0706745 0.888035 0
0.0804697 0.794057 0
0.0821409 0.815587 0
0.0706745 0.888035 0
0.0715522 0.900857 0
0.0821409 0.815587 0
0.0817056 0.833227 0
0.0691585 0.747836 0
0.0763694 0.770979 0
0.106863 0.538168 0
0.11732 0.576968 0
0.0763694 0.770979 0
0.0804697 0.794057 0
0.11732 0.576968 0
0.120148 0.615151 0
0.106863 0.538168 0
0.11732 0.576968 0
0 0 0
0 0 0
0.11732 0.576968 0
0.120148 0.615151 0
0 0 0
0 0 0
0.0804697 0.794057 0
0.0821409 0.815587 0
0.120148 0.615151 0
0.116894 0.648053 0
0.0821409 0.815587 0
0.0817056 0.833227 0
0.116894 0.648053 0
0.109698 0.672684 0
0.120148 0.615151 0
0.116894 0.648053 0
0 0 0
0 0 0
0.116894 0.648053 0
0.109698 0.672684 0
0 0 0
0 0 0
0.0659785 0.941883 0
0.0691717 0.931873 0
0.0715522 0.900857 0
0.0740493 0.893161 0
0.0691717 0.931873 0
0.0709679 0.923292 0
0.0740493 0.893161 0
0.0749217 0.886439 0
0.0715522 0.900857 0
0.0740493 0.893161 0
0.0817056 0.833227 0
0.0842307 0.82783 0
0.0740493 0.893161 0
0.0749217 0.886439 0
0.0842307 0.82783 0
0.0843678 0.822904 0
0.0709679 0.923292 0
0.0705394 0.916151 0
0.0749217 0.886439 0
0.0736359 0.881013 0
0.0705394 0.916151 0
0.0673825 0.910058 0
0.0736359 0.881013 0
0.0695341 0.87702 0
0.0749217 0.886439 0
0.0736359 0.881013 0
0.0843678 0.822904 0
0.08258 0.819457 0
0.0736359 0.881013 0
0.0695341 0.87702 0
0.08258 0.819457 0
0.0775737 0.818252 0
0.0817056 0.833227 0
0.0842307 0.82783 0
0.109698 0.672684 0
0.120696 0.673788 0
0.0842307 0.82783 0
0.0843678 0.822904 0
0.120696 0.673788 0
0.123411 0.677732 0
0.109698 0.672684 0
0.120696 0.673788 0
0 0 0
0 0 0
0.120696 0.673788 0
0.123411 0.677732 0
0 0 0
0 0 0
0.0843678 0.822904 0
0.08258 0.819457 0
0.123411 0.677732 0
0.118679 0.682882 0
0.08258 0.819457 0
0.0775737 0.818252 0
0.118679 0.682882 0
0.106834 0.688632 0
0.123411 0.677732 0
0.118679 0.682882 0
0 0 0
0 0 0
0.118679 0.682882 0
0.106834 0.688632 0
0 0 0
0 0 0
0.0673825 0.910058 0
0.0611366 0.904891 0
0.0695341 0.87702 0
0.0621188 0.874026 0
0.0611366 0.904891 0
0.0518032 0.900411 0
0.0621188 0.874026 0
0.0511725 0.871585 0
0.0695341 0.87702 0
0.0621188 0.874026 0
0.0775737 0.818252 0
0.068246 0.818319 0
0.0621188 0.874026 0
0.0511725 0.871585 0
0.068246 0.818319 0
0.0541227 0.818944 0
0.0518032 0.900411 0
0.0398168 0.895945 0
0.0511725 0.871585 0
0.0371774 0.868729 0
0.0398168 0.895945 0
0.0263259 0.890784 0
0.0371774 0.868729 0
0.02144 0.864794 0
0.0511725 0.871585 0
0.0371774 0.868729 0
0.0541227 0.818944 0
0.0360264 0.818464 0
0.0371774 0.868729 0
0.02144 0.864794 0
0.0360264 0.818464 0
0.0157334 0.816186 0
0.0775737 0.818252 0
0.068246 0.818319 0
0.106834 0.688632 0
0.0887718 0.693745 0
0.068246 0.818319 0
0.0541227 0.818944 0
0.0887718 0.693745 0
0.065253 0.697705 0
0.106834 0.688632 0
0.0887718 0.693745 0
0 0 0
0 0 0
0.0887718 0.693745 0
0.065253 0.697705 0
0 0 0
0 0 0
0.0541227 0.818944 0
0.0360264 0.818464 0
0.065253 0.697705 0
0.037898 0.699448 0
0.0360264 0.818464 0
0.0157334 0.816186 0
0.037898 0.699448 0
0.00863811 0.69869 0
0.065253 0.697705 0
0.037898 0.699448 0
0 0 0
0 0 0
0.037898 0.699448 0
0.00863811 0.69869 0
0 0 0
0 0 0
SCALARS pressure double 1
LOOKUP_TABLE default