# vtk DataFile Version 3.0
#This file was generated by the deal.II library on 2014/11/24 at 23:16:54
ASCII
DATASET UNSTRUCTURED_GRID

POINTS 16144 double
15 0 0
15 1.875 0
13.25 0 0
13.246 1.6519 0
15 1.875 0
15 3.75 0
13.246 1.6519 0
13.2419 3.3038 0
13.25 0 0
13.246 1.6519 0
11.5 0 0
11.4919 1.4288 0
13.246 1.6519 0
13.2419 3.3038 0
11.4919 1.4288 0
11.4839 2.8576 0
15 3.75 0
15 5.625 0
13.2419 3.3038 0
13.2379 4.9557 0
15 5.625 0
15 7.5 0
13.2379 4.9557 0
13.2339 6.6076 0
13.2419 3.3038 0
13.2379 4.9557 0
11.4839 2.8576 0
11.4758 4.28641 0
13.2379 4.9557 0
13.2339 6.6076 0
11.4758 4.28641 0
11.4678 5.71521 0
11.5 0 0
11.4919 1.4288 0
9.75 0 0
9.73792 1.2057 0
11.4919 1.4288 0
11.4839 2.8576 0
9.73792 1.2057 0
9.72584 2.41141 0
9.75 0 0
9.73792 1.2057 0
8 0 0
7.98389 0.982604 0
9.73792 1.2057 0
9.72584 2.41141 0
7.98389 0.982604 0
7.96778 1.96521 0
11.4839 2.8576 0
11.4758 4.28641 0
9.72584 2.41141 0
9.71376 3.61711 0
11.4758 4.28641 0
11.4678 5.71521 0
9.71376 3.61711 0
9.70168 4.82281 0
9.72584 2.41141 0
9.71376 3.61711 0
7.96778 1.96521 0
7.95168 2.94781 0
9.71376 3.61711 0
9.70168 4.82281 0
7.95168 2.94781 0
7.93557 3.93042 0
15 7.5 0
15 9.375 0
13.2339 6.6076 0
13.2288 8.25905 0
15 9.375 0
15 11.25 0
13.2288 8.25905 0
13.2236 9.9105 0
13.2339 6.6076 0
13.2288 8.25905 0
11.4678 5.71521 0
11.4575 7.1431 0
13.2288 8.25905 0
13.2236 9.9105 0
11.4575 7.1431 0
11.4473 8.57099 0
15 11.25 0
15 13.125 0
13.2236 9.9105 0
13.2185 11.5619 0
15 13.125 0
15 15 0
13.2185 11.5619 0
13.2134 13.2134 0
13.2236 9.9105 0
13.2185 11.5619 0
11.4473 8.57099 0
11.437 9.99888 0
13.2185 11.5619 0
13.2134 13.2134 0
11.437 9.99888 0
11.4268 11.4268 0
11.4678 5.71521 0
11.4575 7.1431 0
9.70168 4.82281 0
9.6863 6.02715 0
11.4575 7.1431 0
11.4473 8.57099 0
9.6863 6.02715 0
9.67092 7.23149 0
9.70168 4.82281 0
9.6863 6.02715 0
7.93557 3.93042 0
7.91506 4.9112 0
9.6863 6.02715 0
9.67092 7.23149 0
7.91506 4.9112 0
7.89456 5.89199 0
11.4473 8.57099 0
11.437 9.99888 0
9.67092 7.23149 0
9.65554 8.43583 0
11.437 9.99888 0
11.4268 11.4268 0
9.65554 8.43583 0
9.64017 9.64017 0
9.67092 7.23149 0
9.65554 8.43583 0
7.89456 5.89199 0
7.87406 6.87277 0
9.65554 8.43583 0
9.64017 9.64017 0
7.87406 6.87277 0
7.85355 7.85355 0
15 -11.25 0
15 -9.375 0
13.2236 -9.9105 0
13.2288 -8.25905 0
15 -9.375 0
15 -7.5 0
13.2288 -8.25905 0
13.2339 -6.6076 0
13.2236 -9.9105 0
13.2288 -8.25905 0
11.4473 -8.57099 0
11.4575 -7.1431 0
13.2288 -8.25905 0
13.2339 -6.6076 0
11.4575 -7.1431 0
11.4678 -5.71521 0
11.4268 -11.4268 0
11.437 -9.99888 0
9.64017 -9.64017 0
9.65554 -8.43583 0
11.437 -9.99888 0
11.4473 -8.57099 0
9.65554 -8.43583 0
9.67092 -7.23149 0
9.64017 -9.64017 0
9.65554 -8.43583 0
7.85355 -7.85355 0
7.87406 -6.87277 0
9.65554 -8.43583 0
9.67092 -7.23149 0
7.87406 -6.87277 0
7.89456 -5.89199 0
11.4473 -8.57099 0
11.4575 -7.1431 0
9.67092 -7.23149 0
9.6863 -6.02715 0
11.4575 -7.1431 0
11.4678 -5.71521 0
9.6863 -6.02715 0
9.70168 -4.82281 0
9.67092 -7.23149 0
9.6863 -6.02715 0
7.89456 -5.89199 0
7.91506 -4.9112 0
9.6863 -6.02715 0
9.70168 -4.82281 0
7.91506 -4.9112 0
7.93557 -3.93042 0
15 -7.5 0
15 -5.625 0
13.2339 -6.6076 0
13.2379 -4.9557 0
15 -5.625 0
15 -3.75 0
13.2379 -4.9557 0
13.2419 -3.3038 0
13.2339 -6.6076 0
13.2379 -4.9557 0
11.4678 -5.71521 0
11.4758 -4.28641 0
13.2379 -4.9557 0
13.2419 -3.3038 0
11.4758 -4.28641 0
11.4839 -2.8576 0
15 -3.75 0
15 -1.875 0
13.2419 -3.3038 0
13.246 -1.6519 0
15 -1.875 0
15 0 0
13.246 -1.6519 0
13.25 0 0
13.2419 -3.3038 0
13.246 -1.6519 0
11.4839 -2.8576 0
11.4919 -1.4288 0
13.246 -1.6519 0
13.25 0 0
11.4919 -1.4288 0
11.5 0 0
11.4678 -5.71521 0
11.4758 -4.28641 0
9.70168 -4.82281 0
9.71376 -3.61711 0
11.4758 -4.28641 0
11.4839 -2.8576 0
9.71376 -3.61711 0
9.72584 -2.41141 0
9.70168 -4.82281 0
9.71376 -3.61711 0
7.93557 -3.93042 0
7.95168 -2.94781 0
9.71376 -3.61711 0
9.72584 -2.41141 0
7.95168 -2.94781 0
7.96778 -1.96521 0
11.4839 -2.8576 0
11.4919 -1.4288 0
9.72584 -2.41141 0
9.73792 -1.2057 0
11.4919 -1.4288 0
11.5 0 0
9.73792 -1.2057 0
9.75 0 0
9.72584 -2.41141 0
9.73792 -1.2057 0
7.96778 -1.96521 0
7.98389 -0.982604 0
9.73792 -1.2057 0
9.75 0 0
7.98389 -0.982604 0
8 0 0
15 15 0
13.125 15 0
13.2134 13.2134 0
11.5619 13.2185 0
13.125 15 0
11.25 15 0
11.5619 13.2185 0
9.9105 13.2236 0
13.2134 13.2134 0
11.5619 13.2185 0
11.4268 11.4268 0
9.99888 11.437 0
11.5619 13.2185 0
9.9105 13.2236 0
9.99888 11.437 0
8.57099 11.4473 0
11.25 15 0
9.375 15 0
9.9105 13.2236 0
8.25905 13.2288 0
9.375 15 0
7.5 15 0
8.25905 13.2288 0
6.6076 13.2339 0
9.9105 13.2236 0
8.25905 13.2288 0
8.57099 11.4473 0
7.1431 11.4575 0
8.25905 13.2288 0
6.6076 13.2339 0
7.1431 11.4575 0
5.71521 11.4678 0
11.4268 11.4268 0
9.99888 11.437 0
9.64017 9.64017 0
8.43583 9.65554 0
9.99888 11.437 0
8.57099 11.4473 0
8.43583 9.65554 0
7.23149 9.67092 0
9.64017 9.64017 0
8.43583 9.65554 0
7.85355 7.85355 0
6.87277 7.87406 0
8.43583 9.65554 0
7.23149 9.67092 0
6.87277 7.87406 0
5.89199 7.89456 0
8.57099 11.4473 0
7.1431 11.4575 0
7.23149 9.67092 0
6.02715 9.6863 0
7.1431 11.4575 0
5.71521 11.4678 0
6.02715 9.6863 0
4.82281 9.70168 0
7.23149 9.67092 0
6.02715 9.6863 0
5.89199 7.89456 0
4.9112 7.91506 0
6.02715 9.6863 0
4.82281 9.70168 0
4.9112 7.91506 0
3.93042 7.93557 0
5.71521 -11.4678 0
7.1431 -11.4575 0
4.82281 -9.70168 0
6.02715 -9.6863 0
7.1431 -11.4575 0
8.57099 -11.4473 0
6.02715 -9.6863 0
7.23149 -9.67092 0
4.82281 -9.70168 0
6.02715 -9.6863 0
3.93042 -7.93557 0
4.9112 -7.91506 0
6.02715 -9.6863 0
7.23149 -9.67092 0
4.9112 -7.91506 0
5.89199 -7.89456 0
8.57099 -11.4473 0
9.99888 -11.437 0
7.23149 -9.67092 0
8.43583 -9.65554 0
9.99888 -11.437 0
11.4268 -11.4268 0
8.43583 -9.65554 0
9.64017 -9.64017 0
7.23149 -9.67092 0
8.43583 -9.65554 0
5.89199 -7.89456 0
6.87277 -7.87406 0
8.43583 -9.65554 0
9.64017 -9.64017 0
6.87277 -7.87406 0
7.85355 -7.85355 0
7.5 15 0
5.625 15 0
6.6076 13.2339 0
4.9557 13.2379 0
5.625 15 0
3.75 15 0
4.9557 13.2379 0
3.3038 13.2419 0
6.6076 13.2339 0
4.9557 13.2379 0
5.71521 11.4678 0
4.28641 11.4758 0
4.9557 13.2379 0
3.3038 13.2419 0
4.28641 11.4758 0
2.8576 11.4839 0
3.75 15 0
1.875 15 0
3.3038 13.2419 0
1.6519 13.246 0
1.875 15 0
0 15 0
1.6519 13.246 0
0 13.25 0
3.3038 13.2419 0
1.6519 13.246 0
2.8576 11.4839 0
1.4288 11.4919 0
1.6519 13.246 0
0 13.25 0
1.4288 11.4919 0
0 11.5 0
5.71521 11.4678 0
4.28641 11.4758 0
4.82281 9.70168 0
3.61711 9.71376 0
4.28641 11.4758 0
2.8576 11.4839 0
3.61711 9.71376 0
2.41141 9.72584 0
4.82281 9.70168 0
3.61711 9.71376 0
3.93042 7.93557 0
2.94781 7.95168 0
3.61711 9.71376 0
2.41141 9.72584 0
2.94781 7.95168 0
1.96521 7.96778 0
2.8576 11.4839 0
1.4288 11.4919 0
2.41141 9.72584 0
1.2057 9.73792 0
1.4288 11.4919 0
0 11.5 0
1.2057 9.73792 0
0 9.75 0
2.41141 9.72584 0
1.2057 9.73792 0
1.96521 7.96778 0
0.982604 7.98389 0
1.2057 9.73792 0
0 9.75 0
0.982604 7.98389 0
0 8 0
0 -15 0
1.875 -15 0
0 -13.25 0
1.6519 -13.246 0
1.875 -15 0
3.75 -15 0
1.6519 -13.246 0
3.3038 -13.2419 0
0 -13.25 0
1.6519 -13.246 0
0 -11.5 0
1.4288 -11.4919 0
1.6519 -13.246 0
3.3038 -13.2419 0
1.4288 -11.4919 0
2.8576 -11.4839 0
3.75 -15 0
5.625 -15 0
3.3038 -13.2419 0
4.9557 -13.2379 0
5.625 -15 0
7.5 -15 0
4.9557 -13.2379 0
6.6076 -13.2339 0
3.3038 -13.2419 0
4.9557 -13.2379 0
2.8576 -11.4839 0
4.28641 -11.4758 0
4.9557 -13.2379 0
6.6076 -13.2339 0
4.28641 -11.4758 0
5.71521 -11.4678 0
0 -11.5 0
1.4288 -11.4919 0
0 -9.75 0
1.2057 -9.73792 0
1.4288 -11.4919 0
2.8576 -11.4839 0
1.2057 -9.73792 0
2.41141 -9.72584 0
0 -9.75 0
1.2057 -9.73792 0
0 -8 0
0.982604 -7.98389 0
1.2057 -9.73792 0
2.41141 -9.72584 0
0.982604 -7.98389 0
1.96521 -7.96778 0
2.8576 -11.4839 0
4.28641 -11.4758 0
2.41141 -9.72584 0
3.61711 -9.71376 0
4.28641 -11.4758 0
5.71521 -11.4678 0
3.61711 -9.71376 0
4.82281 -9.70168 0
2.41141 -9.72584 0
3.61711 -9.71376 0
1.96521 -7.96778 0
2.94781 -7.95168 0
3.61711 -9.71376 0
4.82281 -9.70168 0
2.94781 -7.95168 0
3.93042 -7.93557 0
8 0 0
7.99195 0.491302 0
7.125 0 0
7.11735 0.435986 0
7.99195 0.491302 0
7.98389 0.982604 0
7.11735 0.435986 0
7.1097 0.871972 0
7.125 0 0
7.11735 0.435986 0
6.25 0 0
6.24276 0.38067 0
7.11735 0.435986 0
7.1097 0.871972 0
6.24276 0.38067 0
6.23552 0.76134 0
7.98389 0.982604 0
7.97584 1.47391 0
7.1097 0.871972 0
7.10206 1.30796 0
7.97584 1.47391 0
7.96778 1.96521 0
7.10206 1.30796 0
7.09441 1.74394 0
7.1097 0.871972 0
7.10206 1.30796 0
6.23552 0.76134 0
6.22828 1.14201 0
7.10206 1.30796 0
7.09441 1.74394 0
6.22828 1.14201 0
6.22103 1.52268 0
6.25 0 0
6.24276 0.38067 0
5.375 0 0
5.36816 0.325354 0
6.24276 0.38067 0
6.23552 0.76134 0
5.36816 0.325354 0
5.36133 0.650707 0
5.375 0 0
5.36816 0.325354 0
4.5 0 0
4.49357 0.270037 0
5.36816 0.325354 0
5.36133 0.650707 0
4.49357 0.270037 0
4.48714 0.540075 0
6.23552 0.76134 0
6.22828 1.14201 0
5.36133 0.650707 0
5.35449 0.976061 0
6.22828 1.14201 0
6.22103 1.52268 0
5.35449 0.976061 0
5.34766 1.30141 0
5.36133 0.650707 0
5.35449 0.976061 0
4.48714 0.540075 0
4.48071 0.810112 0
5.35449 0.976061 0
5.34766 1.30141 0
4.48071 0.810112 0
4.47428 1.08015 0
7.96778 1.96521 0
7.95973 2.45651 0
7.09441 1.74394 0
7.08558 2.1797 0
7.95973 2.45651 0
7.95168 2.94781 0
7.08558 2.1797 0
7.07676 2.61545 0
7.09441 1.74394 0
7.08558 2.1797 0
6.22103 1.52268 0
6.21144 1.90288 0
7.08558 2.1797 0
7.07676 2.61545 0
6.21144 1.90288 0
6.20184 2.28308 0
7.95168 2.94781 0
7.94362 3.43912 0
7.07676 2.61545 0
7.06793 3.0512 0
7.94362 3.43912 0
7.93557 3.93042 0
7.06793 3.0512 0
7.05911 3.48695 0
7.07676 2.61545 0
7.06793 3.0512 0
6.20184 2.28308 0
6.19224 2.66328 0
7.06793 3.0512 0
7.05911 3.48695 0
6.19224 2.66328 0
6.18265 3.04348 0
6.22103 1.52268 0
6.21144 1.90288 0
5.34766 1.30141 0
5.33729 1.62607 0
6.21144 1.90288 0
6.20184 2.28308 0
5.33729 1.62607 0
5.32692 1.95072 0
5.34766 1.30141 0
5.33729 1.62607 0
4.47428 1.08015 0
4.46314 1.34925 0
5.33729 1.62607 0
5.32692 1.95072 0
4.46314 1.34925 0
4.452 1.61835 0
6.20184 2.28308 0
6.19224 2.66328 0
5.32692 1.95072 0
5.31655 2.27537 0
6.19224 2.66328 0
6.18265 3.04348 0
5.31655 2.27537 0
5.30618 2.60002 0
5.32692 1.95072 0
[...]
POINT_DATA 16144
VECTORS velocity double
0.0361621 0.94578 0
0.0245645 0.938934 0
0.0343009 0.936226 0
0.0224095 0.930007 0
0.0245645 0.938934 0
0.0140966 0.93165 0
0.0224095 0.930007 0
0.0118043 0.923957 0
0.0343009 0.936226 0
0.0224095 0.930007 0
0.0319915 0.927468 0
0.0201241 0.921276 0
0.0224095 0.930007 0
0.0118043 0.923957 0
0.0201241 0.921276 0
0.00951576 0.9152 0
0.0140966 0.93165 0
0.0056218 0.924823 0
0.0118043 0.923957 0
0.00340268 0.918455 0
0.0056218 0.924823 0
-0.000838617 0.919358 0
0.00340268 0.918455 0
-0.00263374 0.913889 0
0.0118043 0.923957 0
0.00340268 0.918455 0
0.00951576 0.9152 0
0.00107387 0.909611 0
0.00340268 0.918455 0
-0.00263374 0.913889 0
0.00107387 0.909611 0
-0.00493447 0.904892 0
0.0319915 0.927468 0
0.0201241 0.921276 0
0.02898 0.916926 0
0.0168525 0.910715 0
0.0201241 0.921276 0
0.00951576 0.9152 0
0.0168525 0.910715 0
0.00600672 0.90431 0
0.02898 0.916926 0
0.0168525 0.910715 0
0.0251621 0.901653 0
0.0120979 0.895595 0
0.0168525 0.910715 0
0.00600672 0.90431 0
0.0120979 0.895595 0
0.000432013 0.888942 0
0.00951576 0.9152 0
0.00107387 0.909611 0
0.00600672 0.90431 0
-0.00262167 0.898183 0
0.00107387 0.909611 0
-0.00493447 0.904892 0
-0.00262167 0.898183 0
-0.00871135 0.892844 0
0.00600672 0.90431 0
-0.00262167 0.898183 0
0.000432013 0.888942 0
-0.00879148 0.882288 0
-0.00262167 0.898183 0
-0.00871135 0.892844 0
-0.00879148 0.882288 0
-0.0151941 0.876297 0
-0.000838617 0.919358 0
-0.00595845 0.915863 0
-0.00263374 0.913889 0
-0.00681 0.910519 0
-0.00595845 0.915863 0
-0.0107809 0.914495 0
-0.00681 0.910519 0
-0.0100477 0.908466 0
-0.00263374 0.913889 0
-0.00681 0.910519 0
-0.00493447 0.904892 0
-0.00881632 0.901274 0
-0.00681 0.910519 0
-0.0100477 0.908466 0
-0.00881632 0.901274 0
-0.0112357 0.898853 0
-0.0107809 0.914495 0
-0.0163126 0.914897 0
-0.0100477 0.908466 0
-0.0134296 0.907705 0
-0.0163126 0.914897 0
-0.0228673 0.916144 0
-0.0134296 0.907705 0
-0.0179343 0.908071 0
-0.0100477 0.908466 0
-0.0134296 0.907705 0
-0.0112357 0.898853 0
-0.0130292 0.897601 0
-0.0134296 0.907705 0
-0.0179343 0.908071 0
-0.0130292 0.897601 0
-0.0150724 0.897448 0
-0.00493447 0.904892 0
-0.00881632 0.901274 0
-0.00871135 0.892844 0
-0.0124864 0.888611 0
-0.00881632 0.901274 0
-0.0112357 0.898853 0
-0.0124864 0.888611 0
-0.0144697 0.885634 0
-0.00871135 0.892844 0
-0.0124864 0.888611 0
-0.0151941 0.876297 0
-0.0189989 0.871397 0
-0.0124864 0.888611 0
-0.0144697 0.885634 0
-0.0189989 0.871397 0
-0.0207095 0.867845 0
-0.0112357 0.898853 0
-0.0130292 0.897601 0
-0.0144697 0.885634 0
-0.0153154 0.883864 0
-0.0130292 0.897601 0
-0.0150724 0.897448 0
-0.0153154 0.883864 0
-0.0156776 0.883166 0
-0.0144697 0.885634 0
-0.0153154 0.883864 0
-0.0207095 0.867845 0
-0.0209496 0.865613 0
-0.0153154 0.883864 0
-0.0156776 0.883166 0
-0.0209496 0.865613 0
-0.0203149 0.864534 0
0.0517276 0.974408 0
0.0606743 0.969519 0
0.059495 0.97644 0
0.0651625 0.968666 0
0.0606743 0.969519 0
0.0639455 0.965137 0
0.0651625 0.968666 0
0.0661468 0.96145 0
0.059495 0.97644 0
0.0651625 0.968666 0
0.0641269 0.969662 0
0.0668812 0.961125 0
0.0651625 0.968666 0
0.0661468 0.96145 0
0.0668812 0.961125 0
0.0660122 0.953242 0
0.0466734 0.986923 0
0.0575342 0.978478 0
0.0574541 0.973211 0
0.0632684 0.964292 0
0.0575342 0.978478 0
0.0641269 0.969662 0
0.0632684 0.964292 0
0.0665597 0.955495 0
0.0574541 0.973211 0
0.0632684 0.964292 0
0.0635424 0.949652 0
0.0666995 0.94086 0
0.0632684 0.964292 0
0.0665597 0.955495 0
0.0666995 0.94086 0
0.0682122 0.932791 0
0.0641269 0.969662 0
0.0668812 0.961125 0
0.0665597 0.955495 0
0.0672111 0.947327 0
0.0668812 0.961125 0
0.0660122 0.953242 0
0.0672111 0.947327 0
0.0650225 0.940066 0
0.0665597 0.955495 0
0.0672111 0.947327 0
0.0682122 0.932791 0
0.0676707 0.92577 0
0.0672111 0.947327 0
0.0650225 0.940066 0
0.0676707 0.92577 0
0.0646103 0.91993 0
0.0639455 0.965137 0
0.0623664 0.960922 0
0.0661468 0.96145 0
0.0629364 0.954767 0
0.0623664 0.960922 0
0.0565578 0.956579 0
0.0629364 0.954767 0
0.0559689 0.948476 0
0.0661468 0.96145 0
0.0629364 0.954767 0
0.0660122 0.953242 0
0.0616345 0.946116 0
0.0629364 0.954767 0
0.0559689 0.948476 0
0.0616345 0.946116 0
0.0540008 0.93964 0
0.0565578 0.956579 0
0.0473797 0.95166 0
0.0559689 0.948476 0
0.0460071 0.942361 0
0.0473797 0.95166 0
0.0361621 0.94578 0
0.0460071 0.942361 0
0.0343009 0.936226 0
0.0559689 0.948476 0
0.0460071 0.942361 0
0.0540008 0.93964 0
0.0437473 0.933523 0
0.0460071 0.942361 0
0.0343009 0.936226 0
0.0437473 0.933523 0
0.0319915 0.927468 0
0.0660122 0.953242 0
0.0616345 0.946116 0
0.0650225 0.940066 0
0.0598157 0.933711 0
0.0616345 0.946116 0
0.0540008 0.93964 0
0.0598157 0.933711 0
0.0516439 0.928034 0
0.0650225 0.940066 0
0.0598157 0.933711 0
0.0646103 0.91993 0
0.0586384 0.915073 0
0.0598157 0.933711 0
0.0516439 0.928034 0
0.0586384 0.915073 0
0.0496587 0.91082 0
0.0540008 0.93964 0
0.0437473 0.933523 0
0.0516439 0.928034 0
0.0410159 0.922583 0
0.0437473 0.933523 0
0.0319915 0.927468 0
0.0410159 0.922583 0
0.02898 0.916926 0
0.0516439 0.928034 0
0.0410159 0.922583 0
0.0496587 0.91082 0
0.0381336 0.906536 0
0.0410159 0.922583 0
0.02898 0.916926 0
0.0381336 0.906536 0
0.0251621 0.901653 0
-0.0228673 0.916144 0
-0.024643 0.909006 0
-0.0179343 0.908071 0
-0.0191398 0.899519 0
-0.024643 0.909006 0
-0.0266759 0.90004 0
-0.0191398 0.899519 0
-0.0199097 0.888687 0
-0.0179343 0.908071 0
-0.0191398 0.899519 0
-0.0150724 0.897448 0
-0.0163867 0.886997 0
-0.0191398 0.899519 0
-0.0199097 0.888687 0
-0.0163867 0.886997 0
-0.0172784 0.874806 0
-0.0266759 0.90004 0
-0.0278842 0.889031 0
-0.0199097 0.888687 0
-0.0198802 0.875993 0
-0.0278842 0.889031 0
-0.0273372 0.876613 0
-0.0198802 0.875993 0
-0.0187062 0.862278 0
-0.0199097 0.888687 0
-0.0198802 0.875993 0
-0.0172784 0.874806 0
-0.0174947 0.861344 0
-0.0198802 0.875993 0
-0.0187062 0.862278 0
-0.0174947 0.861344 0
-0.0167051 0.847389 0
-0.0150724 0.897448 0
-0.0163867 0.886997 0
-0.0156776 0.883166 0
-0.0175696 0.871464 0
-0.0163867 0.886997 0
-0.0172784 0.874806 0
-0.0175696 0.871464 0
-0.0190479 0.858425 0
-0.0156776 0.883166 0
-0.0175696 0.871464 0
-0.0203149 0.864534 0
-0.0229754 0.851663 0
-0.0175696 0.871464 0
-0.0190479 0.858425 0
-0.0229754 0.851663 0
-0.0250249 0.837481 0
-0.0172784 0.874806 0
-0.0174947 0.861344 0
-0.0190479 0.858425 0
-0.0197418 0.844445 0
-0.0174947 0.861344 0
-0.0167051 0.847389 0
-0.0197418 0.844445 0
-0.0191908 0.830215 0
-0.0190479 0.858425 0
-0.0197418 0.844445 0
-0.0250249 0.837481 0
-0.02595 0.822349 0
-0.0197418 0.844445 0
-0.0191908 0.830215 0
-0.02595 0.822349 0
-0.0251617 0.806974 0
0.0349223 0.974651 0
0.0392717 0.979208 0
0.0432667 0.948321 0
0.0487858 0.956349 0
0.0392717 0.979208 0
0.0422603 0.983307 0
0.0487858 0.956349 0
0.0526748 0.963434 0
0.0432667 0.948321 0
0.0487858 0.956349 0
0.0490255 0.910189 0
0.0551667 0.921745 0
0.0487858 0.956349 0
0.0526748 0.963434 0
0.0551667 0.921745 0
0.059255 0.932513 0
0.0422603 0.983307 0
0.0445694 0.98605 0
0.0526748 0.963434 0
0.0554265 0.969125 0
0.0445694 0.98605 0
0.0466734 0.986923 0
0.0554265 0.969125 0
0.0574541 0.973211 0
0.0526748 0.963434 0
0.0554265 0.969125 0
0.059255 0.932513 0
0.0618669 0.941908 0
0.0554265 0.969125 0
0.0574541 0.973211 0
0.0618669 0.941908 0
0.0635424 0.949652 0
-0.0273372 0.876613 0
-0.0243053 0.864007 0
-0.0187062 0.862278 0
-0.0160922 0.848807 0
-0.0243053 0.864007 0
-0.0184338 0.852908 0
-0.0160922 0.848807 0
-0.011918 0.837246 0
-0.0187062 0.862278 0
-0.0160922 0.848807 0
-0.0167051 0.847389 0
-0.0145771 0.834073 0
-0.0160922 0.848807 0
-0.011918 0.837246 0
-0.0145771 0.834073 0
-0.0109218 0.822878 0
-0.0184338 0.852908 0
-0.00997913 0.845197 0
-0.011918 0.837246 0
-0.00636533 0.829369 0
-0.00997913 0.845197 0
4.31448e-05 0.842415 0
-0.00636533 0.829369 0
1.90878e-05 0.826575 0
-0.011918 0.837246 0
-0.00636533 0.829369 0
-0.0109218 0.822878 0
-0.0058779 0.815362 0
-0.00636533 0.829369 0
1.90878e-05 0.826575 0
-0.0058779 0.815362 0
1.23227e-05 0.81274 0
-0.0167051 0.847389 0
-0.0145771 0.834073 0
-0.0191908 0.830215 0
-0.0169594 0.816766 0
-0.0145771 0.834073 0
-0.0109218 0.822878 0
-0.0169594 0.816766 0
-0.0128038 0.805536 0
-0.0191908 0.830215 0
-0.0169594 0.816766 0
-0.0251617 0.806974 0
-0.0221479 0.792423 0
-0.0169594 0.816766 0
-0.0128038 0.805536 0
-0.0221479 0.792423 0
-0.0166454 0.780291 0
-0.0109218 0.822878 0
-0.0058779 0.815362 0
-0.0128038 0.805536 0
-0.0069156 0.798046 0
-0.0058779 0.815362 0
1.23227e-05 0.81274 0
-0.0069156 0.798046 0
1.21768e-05 0.795486 0
-0.0128038 0.805536 0
-0.0069156 0.798046 0
-0.0166454 0.780291 0
-0.00895399 0.772254 0
-0.0069156 0.798046 0
1.21768e-05 0.795486 0
-0.00895399 0.772254 0
1.35504e-05 0.76961 0
0 1 0
0 1 0
6.3505e-06 0.978792 0
0.00723199 0.979468 0
0 1 0
0 1 0
0.00723199 0.979468 0
0.0135585 0.981376 0
6.3505e-06 0.978792 0
0.00723199 0.979468 0
-9.61863e-06 0.961025 0
0.0110085 0.962076 0
0.00723199 0.979468 0
0.0135585 0.981376 0
0.0110085 0.962076 0
0.0209349 0.965207 0
0 1 0
0 1 0
0.0135585 0.981376 0
0.0183941 0.984144 0
0 1 0
0 1 0
0.0183941 0.984144 0
0.0219733 0.988002 0
0.0135585 0.981376 0
0.0183941 0.984144 0
0.0209349 0.965207 0
0.0289633 0.969692 0
0.0183941 0.984144 0
0.0219733 0.988002 0
0.0289633 0.969692 0
0.0349223 0.974651 0
-9.61863e-06 0.961025 0
0.0110085 0.962076 0
-1.09809e-05 0.926583 0
0.0133442 0.928159 0
0.0110085 0.962076 0
0.0209349 0.965207 0
0.0133442 0.928159 0
0.025478 0.933018 0
-1.09809e-05 0.926583 0
0.0133442 0.928159 0
-1.38914e-05 0.880456 0
0.0151566 0.88245 0
0.0133442 0.928159 0
0.025478 0.933018 0
0.0151566 0.88245 0
0.0289539 0.888967 0
0.0209349 0.965207 0
0.0289633 0.969692 0
0.025478 0.933018 0
0.0355526 0.940148 0
0.0289633 0.969692 0
0.0349223 0.974651 0
0.0355526 0.940148 0
0.0432667 0.948321 0
0.025478 0.933018 0
0.0355526 0.940148 0
0.0289539 0.888967 0
0.0403671 0.898749 0
0.0355526 0.940148 0
0.0432667 0.948321 0
0.0403671 0.898749 0
0.0490255 0.910189 0
0.0251621 0.901653 0
0.0185425 0.898727 0
0.0229431 0.89085 0
0.0158831 0.888044 0
0.0185425 0.898727 0
0.0120979 0.895595 0
0.0158831 0.888044 0
0.009012 0.88498 0
0.0229431 0.89085 0
0.0158831 0.888044 0
0.0205225 0.876646 0
0.0128364 0.873994 0
0.0158831 0.888044 0
0.009012 0.88498 0
0.0128364 0.873994 0
0.00535758 0.87102 0
0.0120979 0.895595 0
0.00601001 0.892313 0
0.009012 0.88498 0
0.00252684 0.881705 0
0.00601001 0.892313 0
0.000432013 0.888942 0
0.00252684 0.881705 0
-0.00340683 0.878301 0
0.009012 0.88498 0
0.00252684 0.881705 0
0.00535758 0.87102 0
-0.00169679 0.867782 0
0.00252684 0.881705 0
-0.00340683 0.878301 0
-0.00169679 0.867782 0
-0.00814457 0.864364 0
0.0205225 0.876646 0
0.0128364 0.873994 0
0.0179017 0.857312 0
0.00933695 0.854837 0
0.0128364 0.873994 0
0.00535758 0.87102 0
0.00933695 0.854837 0
0.00100244 0.851972 0
0.0179017 0.857312 0
0.00933695 0.854837 0
0.0150768 0.829723 0
0.00528507 0.827429 0
0.00933695 0.854837 0
0.00100244 0.851972 0
0.00528507 0.827429 0
-0.0042439 0.824667 0
0.00535758 0.87102 0
-0.00169679 0.867782 0
0.00100244 0.851972 0
-0.00686037 0.848787 0
-0.00169679 0.867782 0
-0.00814457 0.864364 0
-0.00686037 0.848787 0
-0.0140463 0.84537 0
0.00100244 0.851972 0
-0.00686037 0.848787 0
-0.0042439 0.824667 0
-0.013244 0.821566 0
-0.00686037 0.848787 0
-0.0140463 0.84537 0
-0.013244 0.821566 0
-0.021481 0.818154 0
0.000432013 0.888942 0
-0.0045241 0.885572 0
-0.00340683 0.878301 0
-0.00867557 0.87484 0
-0.0045241 0.885572 0
-0.00879148 0.882288 0
-0.00867557 0.87484 0
-0.0131987 0.871441 0
-0.00340683 0.878301 0
-0.00867557 0.87484 0
-0.00814457 0.864364 0
-0.0138707 0.860826 0
-0.00867557 0.87484 0
-0.0131987 0.871441 0
-0.0138707 0.860826 0
-0.0187778 0.857323 0
-0.00879148 0.882288 0
-0.0123425 0.879172 0
-0.0131987 0.871441 0
-0.0169484 0.868195 0
-0.0123425 0.879172 0
-0.0151941 0.876297 0
-0.0169484 0.868195 0
-0.0199357 0.865183 0
-0.0131987 0.871441 0
-0.0169484 0.868195 0
-0.0187778 0.857323 0
-0.0228318 0.853961 0
-0.0169484 0.868195 0
-0.0199357 0.865183 0
-0.0228318 0.853961 0
-0.0260433 0.85083 0
-0.00814457 0.864364 0
-0.0138707 0.860826 0
-0.0140463 0.84537 0
-0.0204395 0.841749 0
-0.0138707 0.860826 0
-0.0187778 0.857323 0
-0.0204395 0.841749 0
-0.0259179 0.838137 0
-0.0140463 0.84537 0
-0.0204395 0.841749 0
-0.021481 0.818154 0
-0.0288387 0.814407 0
-0.0204395 0.841749 0
-0.0259179 0.838137 0
-0.0288387 0.814407 0
-0.0351609 0.810647 0
-0.0187778 0.857323 0
-0.0228318 0.853961 0
-0.0259179 0.838137 0
-0.0304383 0.834655 0
-0.0228318 0.853961 0
-0.0260433 0.85083 0
-0.0304383 0.834655 0
-0.0340085 0.831408 0
-0.0259179 0.838137 0
-0.0304383 0.834655 0
-0.0351609 0.810647 0
-0.0403903 0.807011 0
-0.0304383 0.834655 0
-0.0340085 0.831408 0
-0.0403903 0.807011 0
-0.0445274 0.803622 0
0.0150768 0.829723 0
0.00528507 0.827429 0
0.0120183 0.787541 0
0.000510845 0.785447 0
0.00528507 0.827429 0
-0.0042439 0.824667 0
0.000510845 0.785447 0
-0.0106805 0.782826 0
0.0120183 0.787541 0
0.000510845 0.785447 0
0.0086309 0.715403 0
-0.00518791 0.713494 0
0.000510845 0.785447 0
-0.0106805 0.782826 0
-0.00518791 0.713494 0
-0.0186653 0.711086 0
0.0646103 0.91993 0
0.0620038 0.917391 0
0.0651892 0.906034 0
0.0623617 0.903972 0
0.0620038 0.917391 0
0.0586384 0.915073 0
0.0623617 0.903972 0
0.0587352 0.90213 0
0.0651892 0.906034 0
0.0623617 0.903972 0
0.0666842 0.888239 0
0.0635689 0.886723 0
0.0623617 0.903972 0
0.0587352 0.90213 0
0.0635689 0.886723 0
0.0595892 0.885429 0
0.0586384 0.915073 0
0.0545104 0.912909 0
0.0587352 0.90213 0
0.0543067 0.900431 0
0.0545104 0.912909 0
0.0496587 0.91082 0
0.0543067 0.900431 0
0.0491119 0.898783 0
0.0587352 0.90213 0
0.0543067 0.900431 0
0.0595892 0.885429 0
0.0547402 0.884267 0
0.0543067 0.900431 0
0.0491119 0.898783 0
0.0547402 0.884267 0
0.0490615 0.88313 0
0.0666842 0.888239 0
0.0635689 0.886723 0
0.0696132 0.864744 0
0.0660899 0.863856 0
0.0635689 0.886723 0
0.0595892 0.885429 0
0.0660899 0.863856 0
0.0616032 0.863195 0
0.0696132 0.864744 0
0.0660899 0.863856 0
0.0747038 0.832305 0
0.0705681 0.832152 0
0.0660899 0.863856 0
0.0616032 0.863195 0
0.0705681 0.832152 0
0.0653319 0.832235 0
0.0595892 0.885429 0
0.0547402 0.884267 0
0.0616032 0.863195 0
0.0561504 0.862655 0
0.0547402 0.884267 0
0.0490615 0.88313 0
0.0561504 0.862655 0
0.0497797 0.862114 0
0.0616032 0.863195 0
0.0561504 0.862655 0
0.0653319 0.832235 0
0.0590002 0.83243 0
0.0561504 0.862655 0
0.0497797 0.862114 0
0.0590002 0.83243 0
0.0516364 0.832599 0
0.0496587 0.91082 0
0.0441597 0.908725 0
0.0491119 0.898783 0
0.0432318 0.897071 0
0.0441597 0.908725 0
0.0381336 0.906536 0
0.0432318 0.897071 0
0.036792 0.895225 0
0.0491119 0.898783 0
0.0432318 0.897071 0
0.0490615 0.88313 0
0.0426426 0.881862 0
0.0432318 0.897071 0
0.036792 0.895225 0
0.0426426 0.881862 0
0.0356168 0.880409 0
0.0381336 0.906536 0
0.0317391 0.904196 0
0.036792 0.895225 0
0.0299625 0.893166 0
0.0317391 0.904196 0
0.0251621 0.901653 0
0.0299625 0.893166 0
0.0229431 0.89085 0
0.036792 0.895225 0
0.0299625 0.893166 0
0.0356168 0.880409 0
0.0281702 0.878688 0
0.0299625 0.893166 0
0.0229431 0.89085 0
0.0281702 0.878688 0
0.0205225 0.876646 0
0.0490615 0.88313 0
0.0426426 0.881862 0
0.0497797 0.862114 0
0.0425969 0.861353 0
0.0426426 0.881862 0
0.0356168 0.880409 0
0.0425969 0.861353 0
0.0347443 0.860353 0
0.0497797 0.862114 0
0.0425969 0.861353 0
0.0516364 0.832599 0
0.0433716 0.832413 0
0.0425969 0.861353 0
0.0347443 0.860353 0
0.0433716 0.832413 0
0.0343583 0.831904 0
0.0356168 0.880409 0
0.0281702 0.878688 0
0.0347443 0.860353 0
0.0264313 0.859028 0
0.0281702 0.878688 0
0.0205225 0.876646 0
0.0264313 0.859028 0
0.0179017 0.857312 0
0.0347443 0.860353 0
0.0264313 0.859028 0
0.0343583 0.831904 0
0.0248375 0.831049 0
0.0264313 0.859028 0
0.0179017 0.857312 0
0.0248375 0.831049 0
0.0150768 0.829723 0
0.0343583 0.831904 0
0.0248375 0.831049 0
0.0347126 0.788804 0
0.0235053 0.788439 0
0.0248375 0.831049 0
0.0150768 0.829723 0
0.0235053 0.788439 0
0.0120183 0.787541 0
0.0347126 0.788804 0
0.0235053 0.788439 0
0.0359752 0.715723 0
0.0224438 0.715817 0
0.0235053 0.788439 0
0.0120183 0.787541 0
0.0224438 0.715817 0
0.0086309 0.715403 0
-0.0151941 0.876297 0
-0.0173936 0.873684 0
-0.0199357 0.865183 0
-0.0222267 0.862421 0
-0.0173936 0.873684 0
-0.0189989 0.871397 0
-0.0222267 0.862421 0
-0.0238646 0.859993 0
-0.0199357 0.865183 0
-0.0222267 0.862421 0
-0.0260433 0.85083 0
-0.0284935 0.847928 0
-0.0222267 0.862421 0
-0.0238646 0.859993 0
-0.0284935 0.847928 0
-0.0302194 0.845377 0
-0.0189989 0.871397 0
-0.020075 0.869449 0
-0.0238646 0.859993 0
-0.0249294 0.857923 0
-0.020075 0.869449 0
-0.0207095 0.867845 0
-0.0249294 0.857923 0
-0.0255014 0.856215 0
-0.0238646 0.859993 0
-0.0249294 0.857923 0
-0.0302194 0.845377 0
-0.0313044 0.843207 0
-0.0249294 0.857923 0
-0.0255014 0.856215 0
-0.0313044 0.843207 0
-0.0318388 0.841426 0
-0.0260433 0.85083 0
-0.0284935 0.847928 0
-0.0340085 0.831408 0
-0.0367321 0.828355 0
-0.0284935 0.847928 0
-0.0302194 0.845377 0
-0.0367321 0.828355 0
-0.0386329 0.825678 0
-0.0340085 0.831408 0
-0.0367321 0.828355 0
-0.0445274 0.803622 0
-0.0477082 0.800358 0
-0.0367321 0.828355 0
-0.0386329 0.825678 0
-0.0477082 0.800358 0
-0.0499307 0.797509 0
-0.0302194 0.845377 0
-0.0313044 0.843207 0
-0.0386329 0.825678 0
-0.0398016 0.823417 0
-0.0313044 0.843207 0
-0.0318388 0.841426 0
-0.0398016 0.823417 0
-0.0403386 0.821585 0
-0.0386329 0.825678 0
-0.0398016 0.823417 0
-0.0499307 0.797509 0
-0.0512926 0.795123 0
-0.0398016 0.823417 0
-0.0403386 0.821585 0
-0.0512926 0.795123 0
-0.0519045 0.793225 0
-0.0207095 0.867845 0
-0.0209727 0.866573 0
-0.0255014 0.856215 0
-0.0256737 0.854846 0
-0.0209727 0.866573 0
-0.0209496 0.865613 0
-0.0256737 0.854846 0
-0.0255146 0.853811 0
-0.0255014 0.856215 0
-0.0256737 0.854846 0
-0.0318388 0.841426 0
-0.0319297 0.839991 0
-0.0256737 0.854846 0
-0.0255146 0.853811 0
-0.0319297 0.839991 0
-0.0316464 0.838921 0
-0.0209496 0.865613 0
-0.0207037 0.864945 0
-0.0255146 0.853811 0
-0.0251005 0.853083 0
-0.0207037 0.864945 0
-0.0203149 0.864534 0
-0.0251005 0.853083 0
-0.0244915 0.852627 0
-0.0255146 0.853811 0
-0.0251005 0.853083 0
-0.0316464 0.838921 0
-0.0310679 0.838189 0
-0.0251005 0.853083 0
-0.0244915 0.852627 0
-0.0310679 0.838189 0
-0.0302651 0.837748 0
-0.0318388 0.841426 0
-0.0319297 0.839991 0
-0.0403386 0.821585 0
-0.0403776 0.820099 0
-0.0319297 0.839991 0
-0.0316464 0.838921 0
-0.0403776 0.820099 0
-0.0399796 0.819021 0
-0.0403386 0.821585 0
-0.0403776 0.820099 0
-0.0519045 0.793225 0
-0.0519419 0.79166 0
-0.0403776 0.820099 0
-0.0399796 0.819021 0
-0.0519419 0.79166 0
-0.0514517 0.790571 0
-0.0316464 0.838921 0
-0.0310679 0.838189 0
-0.0399796 0.819021 0
-0.03923 0.818319 0
-0.0310679 0.838189 0
-0.0302651 0.837748 0
-0.03923 0.818319 0
-0.0382109 0.817947 0
-0.0399796 0.819021 0
-0.03923 0.818319 0
-0.0514517 0.790571 0
-0.050537 0.789928 0
-0.03923 0.818319 0
-0.0382109 0.817947 0
-0.050537 0.789928 0
-0.0492993 0.789686 0
-0.0203149 0.864534 0
-0.021692 0.858278 0
-0.0244915 0.852627 0
-0.0260661 0.845932 0
-0.021692 0.858278 0
-0.0229754 0.851663 0
-0.0260661 0.845932 0
-0.0275083 0.838862 0
-0.0244915 0.852627 0
-0.0260661 0.845932 0
-0.0302651 0.837748 0
-0.0320238 0.830429 0
-0.0260661 0.845932 0
-0.0275083 0.838862 0
-0.0320238 0.830429 0
-0.0336068 0.822685 0
-0.0229754 0.851663 0
-0.0241053 0.844721 0
-0.0275083 0.838862 0
-0.0287571 0.83144 0
-0.0241053 0.844721 0
-0.0250249 0.837481 0
-0.0287571 0.83144 0
-0.0297433 0.823704 0
-0.0275083 0.838862 0
-0.0287571 0.83144 0
-0.0336068 0.822685 0
-0.0349416 0.814557 0
-0.0287571 0.83144 0
-0.0297433 0.823704 0
-0.0349416 0.814557 0
-0.0359498 0.806085 0
-0.0302651 0.837748 0
-0.0320238 0.830429 0
-0.0382109 0.817947 0
-0.0401392 0.809692 0
-0.0320238 0.830429 0
-0.0336068 0.822685 0
-0.0401392 0.809692 0
-0.0418324 0.800954 0
-0.0382109 0.817947 0
-0.0401392 0.809692 0
-0.0492993 0.789686 0
-0.0513774 0.780021 0
-0.0401392 0.809692 0
-0.0418324 0.800954 0
-0.0513774 0.780021 0
-0.0531421 0.769832 0
-0.0336068 0.822685 0
-0.0349416 0.814557 0
-0.0418324 0.800954 0
-0.0432057 0.791789 0
-0.0349416 0.814557 0