# vtk DataFile Version 3.0
#This file was generated by the deal.II library on 2014/11/24 at 23:18:11
ASCII
DATASET UNSTRUCTURED_GRID

POINTS 36160 double
15 0 0
15 1.875 0
13.25 0 0
13.246 1.6519 0
15 1.875 0
15 3.75 0
13.246 1.6519 0
13.2419 3.3038 0
13.25 0 0
13.246 1.6519 0
11.5 0 0
11.4919 1.4288 0
13.246 1.6519 0
13.2419 3.3038 0
11.4919 1.4288 0
11.4839 2.8576 0
15 3.75 0
15 5.625 0
13.2419 3.3038 0
13.2379 4.9557 0
15 5.625 0
15 7.5 0
13.2379 4.9557 0
13.2339 6.6076 0
13.2419 3.3038 0
13.2379 4.9557 0
11.4839 2.8576 0
11.4758 4.28641 0
13.2379 4.9557 0
13.2339 6.6076 0
11.4758 4.28641 0
11.4678 5.71521 0
11.5 0 0
11.4919 1.4288 0
9.75 0 0
9.73792 1.2057 0
11.4919 1.4288 0
11.4839 2.8576 0
9.73792 1.2057 0
9.72584 2.41141 0
9.75 0 0
9.73792 1.2057 0
8 0 0
7.98389 0.982604 0
9.73792 1.2057 0
9.72584 2.41141 0
7.98389 0.982604 0
7.96778 1.96521 0
11.4839 2.8576 0
11.4758 4.28641 0
9.72584 2.41141 0
9.71376 3.61711 0
11.4758 4.28641 0
11.4678 5.71521 0
9.71376 3.61711 0
9.70168 4.82281 0
9.72584 2.41141 0
9.71376 3.61711 0
7.96778 1.96521 0
7.95168 2.94781 0
9.71376 3.61711 0
9.70168 4.82281 0
7.95168 2.94781 0
7.93557 3.93042 0
15 7.5 0
15 9.375 0
13.2339 6.6076 0
13.2288 8.25905 0
15 9.375 0
15 11.25 0
13.2288 8.25905 0
13.2236 9.9105 0
13.2339 6.6076 0
13.2288 8.25905 0
11.4678 5.71521 0
11.4575 7.1431 0
13.2288 8.25905 0
13.2236 9.9105 0
11.4575 7.1431 0
11.4473 8.57099 0
15 11.25 0
15 13.125 0
13.2236 9.9105 0
13.2185 11.5619 0
15 13.125 0
15 15 0
13.2185 11.5619 0
13.2134 13.2134 0
13.2236 9.9105 0
13.2185 11.5619 0
11.4473 8.57099 0
11.437 9.99888 0
13.2185 11.5619 0
13.2134 13.2134 0
11.437 9.99888 0
11.4268 11.4268 0
11.4678 5.71521 0
11.4575 7.1431 0
9.70168 4.82281 0
9.6863 6.02715 0
11.4575 7.1431 0
11.4473 8.57099 0
9.6863 6.02715 0
9.67092 7.23149 0
9.70168 4.82281 0
9.6863 6.02715 0
7.93557 3.93042 0
7.91506 4.9112 0
9.6863 6.02715 0
9.67092 7.23149 0
7.91506 4.9112 0
7.89456 5.89199 0
11.4473 8.57099 0
11.437 9.99888 0
9.67092 7.23149 0
9.65554 8.43583 0
11.437 9.99888 0
11.4268 11.4268 0
9.65554 8.43583 0
9.64017 9.64017 0
9.67092 7.23149 0
9.65554 8.43583 0
7.89456 5.89199 0
7.87406 6.87277 0
9.65554 8.43583 0
9.64017 9.64017 0
7.87406 6.87277 0
7.85355 7.85355 0
15 -11.25 0
15 -9.375 0
13.2236 -9.9105 0
13.2288 -8.25905 0
15 -9.375 0
15 -7.5 0
13.2288 -8.25905 0
13.2339 -6.6076 0
13.2236 -9.9105 0
13.2288 -8.25905 0
11.4473 -8.57099 0
11.4575 -7.1431 0
13.2288 -8.25905 0
13.2339 -6.6076 0
11.4575 -7.1431 0
11.4678 -5.71521 0
11.4473 -8.57099 0
11.4575 -7.1431 0
9.67092 -7.23149 0
9.6863 -6.02715 0
11.4575 -7.1431 0
11.4678 -5.71521 0
9.6863 -6.02715 0
9.70168 -4.82281 0
9.67092 -7.23149 0
9.6863 -6.02715 0
7.89456 -5.89199 0
7.91506 -4.9112 0
9.6863 -6.02715 0
9.70168 -4.82281 0
7.91506 -4.9112 0
7.93557 -3.93042 0
15 -7.5 0
15 -5.625 0
13.2339 -6.6076 0
13.2379 -4.9557 0
15 -5.625 0
15 -3.75 0
13.2379 -4.9557 0
13.2419 -3.3038 0
13.2339 -6.6076 0
13.2379 -4.9557 0
11.4678 -5.71521 0
11.4758 -4.28641 0
13.2379 -4.9557 0
13.2419 -3.3038 0
11.4758 -4.28641 0
11.4839 -2.8576 0
15 -3.75 0
15 -1.875 0
13.2419 -3.3038 0
13.246 -1.6519 0
15 -1.875 0
15 0 0
13.246 -1.6519 0
13.25 0 0
13.2419 -3.3038 0
13.246 -1.6519 0
11.4839 -2.8576 0
11.4919 -1.4288 0
13.246 -1.6519 0
13.25 0 0
11.4919 -1.4288 0
11.5 0 0
11.4678 -5.71521 0
11.4758 -4.28641 0
9.70168 -4.82281 0
9.71376 -3.61711 0
11.4758 -4.28641 0
11.4839 -2.8576 0
9.71376 -3.61711 0
9.72584 -2.41141 0
9.70168 -4.82281 0
9.71376 -3.61711 0
7.93557 -3.93042 0
7.95168 -2.94781 0
9.71376 -3.61711 0
9.72584 -2.41141 0
7.95168 -2.94781 0
7.96778 -1.96521 0
11.4839 -2.8576 0
11.4919 -1.4288 0
9.72584 -2.41141 0
9.73792 -1.2057 0
11.4919 -1.4288 0
11.5 0 0
9.73792 -1.2057 0
9.75 0 0
9.72584 -2.41141 0
9.73792 -1.2057 0
7.96778 -1.96521 0
7.98389 -0.982604 0
9.73792 -1.2057 0
9.75 0 0
7.98389 -0.982604 0
8 0 0
15 15 0
13.125 15 0
13.2134 13.2134 0
11.5619 13.2185 0
13.125 15 0
11.25 15 0
11.5619 13.2185 0
9.9105 13.2236 0
13.2134 13.2134 0
11.5619 13.2185 0
11.4268 11.4268 0
9.99888 11.437 0
11.5619 13.2185 0
9.9105 13.2236 0
9.99888 11.437 0
8.57099 11.4473 0
11.25 15 0
9.375 15 0
9.9105 13.2236 0
8.25905 13.2288 0
9.375 15 0
7.5 15 0
8.25905 13.2288 0
6.6076 13.2339 0
9.9105 13.2236 0
8.25905 13.2288 0
8.57099 11.4473 0
7.1431 11.4575 0
8.25905 13.2288 0
6.6076 13.2339 0
7.1431 11.4575 0
5.71521 11.4678 0
11.4268 11.4268 0
9.99888 11.437 0
9.64017 9.64017 0
8.43583 9.65554 0
9.99888 11.437 0
8.57099 11.4473 0
8.43583 9.65554 0
7.23149 9.67092 0
9.64017 9.64017 0
8.43583 9.65554 0
7.85355 7.85355 0
6.87277 7.87406 0
8.43583 9.65554 0
7.23149 9.67092 0
6.87277 7.87406 0
5.89199 7.89456 0
8.57099 11.4473 0
7.1431 11.4575 0
7.23149 9.67092 0
6.02715 9.6863 0
7.1431 11.4575 0
5.71521 11.4678 0
6.02715 9.6863 0
4.82281 9.70168 0
7.23149 9.67092 0
6.02715 9.6863 0
5.89199 7.89456 0
4.9112 7.91506 0
6.02715 9.6863 0
4.82281 9.70168 0
4.9112 7.91506 0
3.93042 7.93557 0
7.5 15 0
5.625 15 0
6.6076 13.2339 0
4.9557 13.2379 0
5.625 15 0
3.75 15 0
4.9557 13.2379 0
3.3038 13.2419 0
6.6076 13.2339 0
4.9557 13.2379 0
5.71521 11.4678 0
4.28641 11.4758 0
4.9557 13.2379 0
3.3038 13.2419 0
4.28641 11.4758 0
2.8576 11.4839 0
3.75 15 0
1.875 15 0
3.3038 13.2419 0
1.6519 13.246 0
1.875 15 0
0 15 0
1.6519 13.246 0
0 13.25 0
3.3038 13.2419 0
1.6519 13.246 0
2.8576 11.4839 0
1.4288 11.4919 0
1.6519 13.246 0
0 13.25 0
1.4288 11.4919 0
0 11.5 0
5.71521 11.4678 0
4.28641 11.4758 0
4.82281 9.70168 0
3.61711 9.71376 0
4.28641 11.4758 0
2.8576 11.4839 0
3.61711 9.71376 0
2.41141 9.72584 0
4.82281 9.70168 0
3.61711 9.71376 0
3.93042 7.93557 0
2.94781 7.95168 0
3.61711 9.71376 0
2.41141 9.72584 0
2.94781 7.95168 0
1.96521 7.96778 0
2.8576 11.4839 0
1.4288 11.4919 0
2.41141 9.72584 0
1.2057 9.73792 0
1.4288 11.4919 0
0 11.5 0
1.2057 9.73792 0
0 9.75 0
2.41141 9.72584 0
1.2057 9.73792 0
1.96521 7.96778 0
0.982604 7.98389 0
1.2057 9.73792 0
0 9.75 0
0.982604 7.98389 0
0 8 0
8 0 0
7.99195 0.491302 0
7.125 0 0
7.11735 0.435986 0
7.99195 0.491302 0
7.98389 0.982604 0
7.11735 0.435986 0
7.1097 0.871972 0
7.125 0 0
7.11735 0.435986 0
6.25 0 0
6.24276 0.38067 0
7.11735 0.435986 0
7.1097 0.871972 0
6.24276 0.38067 0
6.23552 0.76134 0
7.98389 0.982604 0
7.97584 1.47391 0
7.1097 0.871972 0
7.10206 1.30796 0
7.97584 1.47391 0
7.96778 1.96521 0
7.10206 1.30796 0
7.09441 1.74394 0
7.1097 0.871972 0
7.10206 1.30796 0
6.23552 0.76134 0
6.22828 1.14201 0
7.10206 1.30796 0
7.09441 1.74394 0
6.22828 1.14201 0
6.22103 1.52268 0
6.25 0 0
6.24276 0.38067 0
5.375 0 0
5.36816 0.325354 0
6.24276 0.38067 0
6.23552 0.76134 0
5.36816 0.325354 0
5.36133 0.650707 0
5.375 0 0
5.36816 0.325354 0
4.5 0 0
4.49357 0.270037 0
5.36816 0.325354 0
5.36133 0.650707 0
4.49357 0.270037 0
4.48714 0.540075 0
6.23552 0.76134 0
6.22828 1.14201 0
5.36133 0.650707 0
5.35449 0.976061 0
6.22828 1.14201 0
6.22103 1.52268 0
5.35449 0.976061 0
5.34766 1.30141 0
5.36133 0.650707 0
5.35449 0.976061 0
4.48714 0.540075 0
4.48071 0.810112 0
5.35449 0.976061 0
5.34766 1.30141 0
4.48071 0.810112 0
4.47428 1.08015 0
7.96778 1.96521 0
7.95973 2.45651 0
7.09441 1.74394 0
7.08558 2.1797 0
7.95973 2.45651 0
7.95168 2.94781 0
7.08558 2.1797 0
7.07676 2.61545 0
7.09441 1.74394 0
7.08558 2.1797 0
6.22103 1.52268 0
6.21144 1.90288 0
7.08558 2.1797 0
7.07676 2.61545 0
6.21144 1.90288 0
6.20184 2.28308 0
7.95168 2.94781 0
7.94362 3.43912 0
7.07676 2.61545 0
7.06793 3.0512 0
7.94362 3.43912 0
7.93557 3.93042 0
7.06793 3.0512 0
7.05911 3.48695 0
7.07676 2.61545 0
7.06793 3.0512 0
6.20184 2.28308 0
6.19224 2.66328 0
7.06793 3.0512 0
7.05911 3.48695 0
6.19224 2.66328 0
6.18265 3.04348 0
6.22103 1.52268 0
6.21144 1.90288 0
5.34766 1.30141 0
5.33729 1.62607 0
6.21144 1.90288 0
6.20184 2.28308 0
5.33729 1.62607 0
5.32692 1.95072 0
5.34766 1.30141 0
5.33729 1.62607 0
4.47428 1.08015 0
4.46314 1.34925 0
5.33729 1.62607 0
5.32692 1.95072 0
4.46314 1.34925 0
4.452 1.61835 0
6.20184 2.28308 0
6.19224 2.66328 0
5.32692 1.95072 0
5.31655 2.27537 0
6.19224 2.66328 0
6.18265 3.04348 0
5.31655 2.27537 0
5.30618 2.60002 0
5.32692 1.95072 0
5.31655 2.27537 0
4.452 1.61835 0
4.44086 1.88745 0
5.31655 2.27537 0
5.30618 2.60002 0
4.44086 1.88745 0
4.42972 2.15655 0
7.93557 -3.93042 0
7.94362 -3.43912 0
7.05911 -3.48695 0
7.06793 -3.0512 0
7.94362 -3.43912 0
7.95168 -2.94781 0
7.06793 -3.0512 0
7.07676 -2.61545 0
7.05911 -3.48695 0
7.06793 -3.0512 0
6.18265 -3.04348 0
6.19224 -2.66328 0
7.06793 -3.0512 0
7.07676 -2.61545 0
6.19224 -2.66328 0
6.20184 -2.28308 0
7.95168 -2.94781 0
7.95973 -2.45651 0
7.07676 -2.61545 0
7.08558 -2.1797 0
7.95973 -2.45651 0
7.96778 -1.96521 0
7.08558 -2.1797 0
7.09441 -1.74394 0
7.07676 -2.61545 0
7.08558 -2.1797 0
6.20184 -2.28308 0
6.21144 -1.90288 0
7.08558 -2.1797 0
7.09441 -1.74394 0
6.21144 -1.90288 0
6.22103 -1.52268 0
6.18265 -3.04348 0
6.19224 -2.66328 0
5.30618 -2.60002 0
5.31655 -2.27537 0
6.19224 -2.66328 0
6.20184 -2.28308 0
5.31655 -2.27537 0
5.32692 -1.95072 0
5.30618 -2.60002 0
5.31655 -2.27537 0
4.42972 -2.15655 0
4.44086 -1.88745 0
5.31655 -2.27537 0
5.32692 -1.95072 0
4.44086 -1.88745 0
4.452 -1.61835 0
6.20184 -2.28308 0
6.21144 -1.90288 0
5.32692 -1.95072 0
5.33729 -1.62607 0
6.21144 -1.90288 0
6.22103 -1.52268 0
5.33729 -1.62607 0
5.34766 -1.30141 0
5.32692 -1.95072 0
5.33729 -1.62607 0
4.452 -1.61835 0
4.46314 -1.34925 0
5.33729 -1.62607 0
5.34766 -1.30141 0
4.46314 -1.34925 0
4.47428 -1.08015 0
7.96778 -1.96521 0
7.97584 -1.47391 0
7.09441 -1.74394 0
7.10206 -1.30796 0
7.97584 -1.47391 0
7.98389 -0.982604 0
7.10206 -1.30796 0
7.1097 -0.871972 0
7.09441 -1.74394 0
7.10206 -1.30796 0
6.22103 -1.52268 0
6.22828 -1.14201 0
7.10206 -1.30796 0
7.1097 -0.871972 0
6.22828 -1.14201 0
6.23552 -0.76134 0
7.98389 -0.982604 0
7.99195 -0.491302 0
7.1097 -0.871972 0
7.11735 -0.435986 0
7.99195 -0.491302 0
8 0 0
7.11735 -0.435986 0
7.125 0 0
7.1097 -0.871972 0
7.11735 -0.435986 0
6.23552 -0.76134 0
6.24276 -0.38067 0
7.11735 -0.435986 0
7.125 0 0
6.24276 -0.38067 0
6.25 0 0
6.22103 -1.52268 0
6.22828 -1.14201 0
5.34766 -1.30141 0
[...]
POINT_DATA 36160
VECTORS velocity double
0.0362958 0.947615 0
0.0246647 0.940775 0
0.0344611 0.938048 0
0.0225286 0.931829 0
0.0246647 0.940775 0
0.0141653 0.933489 0
0.0225286 0.931829 0
0.0118863 0.925776 0
0.0344611 0.938048 0
0.0225286 0.931829 0
0.0321737 0.929301 0
0.0202614 0.923101 0
0.0225286 0.931829 0
0.0118863 0.925776 0
0.0202614 0.923101 0
0.00961281 0.917014 0
0.0141653 0.933489 0
0.00566404 0.926655 0
0.0118863 0.925776 0
0.0034541 0.92027 0
0.00566404 0.926655 0
-0.000817053 0.921181 0
0.0034541 0.92027 0
-0.0026056 0.915697 0
0.0118863 0.925776 0
0.0034541 0.92027 0
0.00961281 0.917014 0
0.00113749 0.911415 0
0.0034541 0.92027 0
-0.0026056 0.915697 0
0.00113749 0.911415 0
-0.00489675 0.906687 0
0.0321737 0.929301 0
0.0202614 0.923101 0
0.0291748 0.918787 0
0.0170012 0.912556 0
0.0202614 0.923101 0
0.00961281 0.917014 0
0.0170012 0.912556 0
0.00611408 0.906132 0
0.0291748 0.918787 0
0.0170012 0.912556 0
0.0253558 0.903544 0
0.0122461 0.897459 0
0.0170012 0.912556 0
0.00611408 0.906132 0
0.0122461 0.897459 0
0.000539232 0.890778 0
0.00961281 0.917014 0
0.00113749 0.911415 0
0.00611408 0.906132 0
-0.00254888 0.899987 0
0.00113749 0.911415 0
-0.00489675 0.906687 0
-0.00254888 0.899987 0
-0.00866575 0.894633 0
0.00611408 0.906132 0
-0.00254888 0.899987 0
0.000539232 0.890778 0
-0.00871858 0.884098 0
-0.00254888 0.899987 0
-0.00866575 0.894633 0
-0.00871858 0.884098 0
-0.0151482 0.878084 0
-0.000817053 0.921181 0
-0.00595291 0.91768 0
-0.0026056 0.915697 0
-0.00679888 0.912323 0
-0.00595291 0.91768 0
-0.0107889 0.91631 0
-0.00679888 0.912323 0
-0.0100493 0.910266 0
-0.0026056 0.915697 0
-0.00679888 0.912323 0
-0.00489675 0.906687 0
-0.00879765 0.903062 0
-0.00679888 0.912323 0
-0.0100493 0.910266 0
-0.00879765 0.903062 0
-0.0112307 0.900636 0
-0.0107889 0.91631 0
-0.0163339 0.916711 0
-0.0100493 0.910266 0
-0.0134421 0.909503 0
-0.0163339 0.916711 0
-0.022903 0.917959 0
-0.0134421 0.909503 0
-0.0179581 0.90987 0
-0.0100493 0.910266 0
-0.0134421 0.909503 0
-0.0112307 0.900636 0
-0.0130344 0.899381 0
-0.0134421 0.909503 0
-0.0179581 0.90987 0
-0.0130344 0.899381 0
-0.0150862 0.899227 0
-0.00489675 0.906687 0
-0.00879765 0.903062 0
-0.00866575 0.894633 0
-0.0124611 0.890387 0
-0.00879765 0.903062 0
-0.0112307 0.900636 0
-0.0124611 0.890387 0
-0.014459 0.887401 0
-0.00866575 0.894633 0
-0.0124611 0.890387 0
-0.0151482 0.878084 0
-0.0189732 0.873166 0
-0.0124611 0.890387 0
-0.014459 0.887401 0
-0.0189732 0.873166 0
-0.0206982 0.869599 0
-0.0112307 0.900636 0
-0.0130344 0.899381 0
-0.014459 0.887401 0
-0.0153149 0.885624 0
-0.0130344 0.899381 0
-0.0150862 0.899227 0
-0.0153149 0.885624 0
-0.0156847 0.884923 0
-0.014459 0.887401 0
-0.0153149 0.885624 0
-0.0206982 0.869599 0
-0.0209481 0.867356 0
-0.0153149 0.885624 0
-0.0156847 0.884923 0
-0.0209481 0.867356 0
-0.0203201 0.866269 0
0.0516552 0.975934 0
0.0607308 0.971119 0
0.0595829 0.978057 0
0.0653554 0.970353 0
0.0607308 0.971119 0
0.0640871 0.966793 0
0.0653554 0.970353 0
0.0663881 0.963189 0
0.0595829 0.978057 0
0.0653554 0.970353 0
0.0644234 0.971405 0
0.0672018 0.962927 0
0.0653554 0.970353 0
0.0663881 0.963189 0
0.0672018 0.962927 0
0.0663342 0.95507 0
0.0644234 0.971405 0
0.0672018 0.962927 0
0.0669848 0.957428 0
0.0676103 0.949264 0
0.0672018 0.962927 0
0.0663342 0.95507 0
0.0676103 0.949264 0
0.0653936 0.941997 0
0.0669848 0.957428 0
0.0676103 0.949264 0
0.0686667 0.934896 0
0.0680859 0.927829 0
0.0676103 0.949264 0
0.0653936 0.941997 0
0.0680859 0.927829 0
0.0649865 0.921949 0
0.0640871 0.966793 0
0.0625433 0.96265 0
0.0663881 0.963189 0
0.0631869 0.956541 0
0.0625433 0.96265 0
0.0567392 0.958359 0
0.0631869 0.956541 0
0.0562024 0.950276 0
0.0663881 0.963189 0
0.0631869 0.956541 0
0.0663342 0.95507 0
0.0619384 0.947956 0
0.0631869 0.956541 0
0.0562024 0.950276 0
0.0619384 0.947956 0
0.0542715 0.941483 0
0.0567392 0.958359 0
0.047543 0.953476 0
0.0562024 0.950276 0
0.0462078 0.944175 0
0.047543 0.953476 0
0.0362958 0.947615 0
0.0462078 0.944175 0
0.0344611 0.938048 0
0.0562024 0.950276 0
0.0462078 0.944175 0
0.0542715 0.941483 0
0.0439756 0.935363 0
0.0462078 0.944175 0
0.0344611 0.938048 0
0.0439756 0.935363 0
0.0321737 0.929301 0
0.0663342 0.95507 0
0.0619384 0.947956 0
0.0653936 0.941997 0
0.0601498 0.935628 0
0.0619384 0.947956 0
0.0542715 0.941483 0
0.0601498 0.935628 0
0.0519345 0.929934 0
0.0653936 0.941997 0
0.0601498 0.935628 0
0.0649865 0.921949 0
0.0589725 0.917057 0
0.0601498 0.935628 0
0.0519345 0.929934 0
0.0589725 0.917057 0
0.0499477 0.912772 0
0.0542715 0.941483 0
0.0439756 0.935363 0
0.0519345 0.929934 0
0.0412591 0.924464 0
0.0439756 0.935363 0
0.0321737 0.929301 0
0.0412591 0.924464 0
0.0291748 0.918787 0
0.0519345 0.929934 0
0.0412591 0.924464 0
0.0499477 0.912772 0
0.0383751 0.908457 0
0.0412591 0.924464 0
0.0291748 0.918787 0
0.0383751 0.908457 0
0.0253558 0.903544 0
-0.022903 0.917959 0
-0.0246814 0.910806 0
-0.0179581 0.90987 0
-0.0191651 0.9013 0
-0.0246814 0.910806 0
-0.0267171 0.901822 0
-0.0191651 0.9013 0
-0.0199361 0.890448 0
-0.0179581 0.90987 0
-0.0191651 0.9013 0
-0.0150862 0.899227 0
-0.0164024 0.888758 0
-0.0191651 0.9013 0
-0.0199361 0.890448 0
-0.0164024 0.888758 0
-0.0172957 0.876546 0
-0.0267171 0.901822 0
-0.0279268 0.890791 0
-0.0199361 0.890448 0
-0.0199066 0.877733 0
-0.0279268 0.890791 0
-0.0273786 0.878352 0
-0.0199066 0.877733 0
-0.0187314 0.863994 0
-0.0199361 0.890448 0
-0.0199066 0.877733 0
-0.0172957 0.876546 0
-0.0175133 0.863061 0
-0.0199066 0.877733 0
-0.0187314 0.863994 0
-0.0175133 0.863061 0
-0.016724 0.849084 0
-0.0150862 0.899227 0
-0.0164024 0.888758 0
-0.0156847 0.884923 0
-0.0175803 0.873202 0
-0.0164024 0.888758 0
-0.0172957 0.876546 0
-0.0175803 0.873202 0
-0.0190623 0.860143 0
-0.0156847 0.884923 0
-0.0175803 0.873202 0
-0.0203201 0.866269 0
-0.0229873 0.85338 0
-0.0175803 0.873202 0
-0.0190623 0.860143 0
-0.0229873 0.85338 0
-0.0250435 0.839176 0
-0.0172957 0.876546 0
-0.0175133 0.863061 0
-0.0190623 0.860143 0
-0.0197596 0.846141 0
-0.0175133 0.863061 0
-0.016724 0.849084 0
-0.0197596 0.846141 0
-0.0192105 0.831889 0
-0.0190623 0.860143 0
-0.0197596 0.846141 0
-0.0250435 0.839176 0
-0.0259742 0.824021 0
-0.0197596 0.846141 0
-0.0192105 0.831889 0
-0.0259742 0.824021 0
-0.0251889 0.808621 0
-0.0273786 0.878352 0
-0.024342 0.865724 0
-0.0187314 0.863994 0
-0.016114 0.850501 0
-0.024342 0.865724 0
-0.0184618 0.854605 0
-0.016114 0.850501 0
-0.0119344 0.83892 0
-0.0187314 0.863994 0
-0.016114 0.850501 0
-0.016724 0.849084 0
-0.0145944 0.835746 0
-0.016114 0.850501 0
-0.0119344 0.83892 0
-0.0145944 0.835746 0
-0.0109354 0.824533 0
-0.0184618 0.854605 0
-0.00999431 0.846881 0
-0.0119344 0.83892 0
-0.00637417 0.83103 0
-0.00999431 0.846881 0
4.32106e-05 0.844094 0
-0.00637417 0.83103 0
1.91168e-05 0.82823 0
-0.0119344 0.83892 0
-0.00637417 0.83103 0
-0.0109354 0.824533 0
-0.00588538 0.817004 0
-0.00637417 0.83103 0
1.91168e-05 0.82823 0
-0.00588538 0.817004 0
1.23424e-05 0.814377 0
-0.016724 0.849084 0
-0.0145944 0.835746 0
-0.0192105 0.831889 0
-0.0169786 0.818418 0
-0.0145944 0.835746 0
-0.0109354 0.824533 0
-0.0169786 0.818418 0
-0.0128192 0.807169 0
-0.0192105 0.831889 0
-0.0169786 0.818418 0
-0.0251889 0.808621 0
-0.0221744 0.794045 0
-0.0169786 0.818418 0
-0.0128192 0.807169 0
-0.0221744 0.794045 0
-0.0166667 0.781893 0
-0.0109354 0.824533 0
-0.00588538 0.817004 0
-0.0128192 0.807169 0
-0.00692428 0.799666 0
-0.00588538 0.817004 0
1.23424e-05 0.814377 0
-0.00692428 0.799666 0
1.21981e-05 0.797102 0
-0.0128192 0.807169 0
-0.00692428 0.799666 0
-0.0166667 0.781893 0
-0.00896589 0.773841 0
-0.00692428 0.799666 0
1.21981e-05 0.797102 0
-0.00896589 0.773841 0
1.35766e-05 0.771191 0
0.0253558 0.903544 0
0.018713 0.900604 0
0.0231302 0.892753 0
0.0160472 0.889931 0
0.018713 0.900604 0
0.0122461 0.897459 0
0.0160472 0.889931 0
0.00915397 0.886851 0
0.0231302 0.892753 0
0.0160472 0.889931 0
0.0206985 0.878553 0
0.01299 0.875884 0
0.0160472 0.889931 0
0.00915397 0.886851 0
0.01299 0.875884 0
0.00548954 0.872895 0
0.0122461 0.897459 0
0.00613697 0.894163 0
0.00915397 0.886851 0
0.00264787 0.883561 0
0.00613697 0.894163 0
0.000539232 0.890778 0
0.00264787 0.883561 0
-0.00330529 0.880142 0
0.00915397 0.886851 0
0.00264787 0.883561 0
0.00548954 0.872895 0
-0.00158559 0.86964 0
0.00264787 0.883561 0
-0.00330529 0.880142 0
-0.00158559 0.86964 0
-0.00805297 0.866206 0
0.0206985 0.878553 0
0.01299 0.875884 0
0.0180621 0.859212 0
0.0094743 0.85672 0
0.01299 0.875884 0
0.00548954 0.872895 0
0.0094743 0.85672 0
0.00111706 0.853841 0
0.0180621 0.859212 0
0.0094743 0.85672 0
0.0152173 0.831603 0
0.00540508 0.829295 0
0.0094743 0.85672 0
0.00111706 0.853841 0
0.00540508 0.829295 0
-0.00414944 0.826532 0
0.00548954 0.872895 0
-0.00158559 0.86964 0
0.00111706 0.853841 0
-0.00676642 0.850637 0
-0.00158559 0.86964 0
-0.00805297 0.866206 0
-0.00676642 0.850637 0
-0.0139712 0.847204 0
0.00111706 0.853841 0
-0.00676642 0.850637 0
-0.00414944 0.826532 0
-0.0131707 0.823383 0
-0.00676642 0.850637 0
-0.0139712 0.847204 0
-0.0131707 0.823383 0
-0.0214248 0.819956 0
0.000539232 0.890778 0
-0.00443495 0.887395 0
-0.00330529 0.880142 0
-0.00859187 0.876667 0
-0.00443495 0.887395 0
-0.00871858 0.884098 0
-0.00859187 0.876667 0
-0.013131 0.873253 0
-0.00330529 0.880142 0
-0.00859187 0.876667 0
-0.00805297 0.866206 0
-0.013797 0.862652 0
-0.00859187 0.876667 0
-0.013131 0.873253 0
-0.013797 0.862652 0
-0.01872 0.859134 0
-0.00871858 0.884098 0
-0.012284 0.880971 0
-0.013131 0.873253 0
-0.016895 0.869994 0
-0.012284 0.880971 0
-0.0151482 0.878084 0
-0.016895 0.869994 0
-0.0198946 0.86697 0
-0.013131 0.873253 0
-0.016895 0.869994 0
-0.01872 0.859134 0
-0.022788 0.855757 0
-0.016895 0.869994 0
-0.0198946 0.86697 0
-0.022788 0.855757 0
-0.0260117 0.852613 0
-0.00805297 0.866206 0
-0.013797 0.862652 0
-0.0139712 0.847204 0
-0.0203819 0.843566 0
-0.013797 0.862652 0
-0.01872 0.859134 0
-0.0203819 0.843566 0
-0.0258759 0.839938 0
-0.0139712 0.847204 0
-0.0203819 0.843566 0
-0.0214248 0.819956 0
-0.0288005 0.816196 0
-0.0203819 0.843566 0
-0.0258759 0.839938 0
-0.0288005 0.816196 0
-0.0351391 0.812423 0
-0.01872 0.859134 0
-0.022788 0.855757 0
-0.0258759 0.839938 0
-0.0304101 0.836441 0
-0.022788 0.855757 0
-0.0260117 0.852613 0
-0.0304101 0.836441 0
-0.0339922 0.833181 0
-0.0258759 0.839938 0
-0.0304101 0.836441 0
-0.0351391 0.812423 0
-0.0403831 0.808773 0
-0.0304101 0.836441 0
-0.0339922 0.833181 0
-0.0403831 0.808773 0
-0.0445327 0.805369 0
0.0649865 0.921949 0
0.0623594 0.919393 0
0.0655532 0.908078 0
0.0627061 0.905996 0
0.0623594 0.919393 0
0.0589725 0.917057 0
0.0627061 0.905996 0
0.0590591 0.904135 0
0.0655532 0.908078 0
0.0627061 0.905996 0
0.0670302 0.890291 0
0.0638967 0.888754 0
0.0627061 0.905996 0
0.0590591 0.904135 0
0.0638967 0.888754 0
0.0598978 0.887441 0
0.0589725 0.917057 0
0.0548224 0.914877 0
0.0590591 0.904135 0
0.0546092 0.902417 0
0.0548224 0.914877 0
0.0499477 0.912772 0
0.0546092 0.902417 0
0.0493921 0.900752 0
0.0590591 0.904135 0
0.0546092 0.902417 0
0.0598978 0.887441 0
0.0550284 0.886259 0
0.0546092 0.902417 0
0.0493921 0.900752 0
0.0550284 0.886259 0
0.0493282 0.885104 0
0.0670302 0.890291 0
0.0638967 0.888754 0
0.0699373 0.866781 0
0.0663974 0.865874 0
0.0638967 0.888754 0
0.0598978 0.887441 0
0.0663974 0.865874 0
0.061893 0.865195 0
0.0699373 0.866781 0
0.0663974 0.865874 0
0.0750038 0.8343 0
0.0708524 0.834129 0
0.0663974 0.865874 0
0.061893 0.865195 0
0.0708524 0.834129 0
0.0655989 0.834195 0
0.0598978 0.887441 0
0.0550284 0.886259 0
0.061893 0.865195 0
0.0564211 0.864637 0
0.0550284 0.886259 0
0.0493282 0.885104 0
0.0564211 0.864637 0
0.0500302 0.864079 0
0.061893 0.865195 0
0.0564211 0.864637 0
0.0655989 0.834195 0
0.0592483 0.834373 0
0.0564211 0.864637 0
0.0500302 0.864079 0
0.0592483 0.834373 0
0.0518645 0.834525 0
0.0499477 0.912772 0
0.0444251 0.910661 0
0.0493921 0.900752 0
0.0434891 0.899023 0
0.0444251 0.910661 0
0.0383751 0.908457 0
0.0434891 0.899023 0
0.0370259 0.89716 0
0.0493921 0.900752 0
0.0434891 0.899023 0
0.0493282 0.885104 0
0.0428868 0.88382 0
0.0434891 0.899023 0
0.0370259 0.89716 0
0.0428868 0.88382 0
0.0358383 0.88235 0
0.0383751 0.908457 0
0.0319565 0.906102 0
0.0370259 0.89716 0
0.0301729 0.895084 0
0.0319565 0.906102 0
0.0253558 0.903544 0
0.0301729 0.895084 0
0.0231302 0.892753 0
0.0370259 0.89716 0
0.0301729 0.895084 0
0.0358383 0.88235 0
0.0283689 0.880612 0
0.0301729 0.895084 0
0.0231302 0.892753 0
0.0283689 0.880612 0
0.0206985 0.878553 0
0.0493282 0.885104 0
0.0428868 0.88382 0
0.0500302 0.864079 0
0.0428263 0.863302 0
0.0428868 0.88382 0
0.0358383 0.88235 0
0.0428263 0.863302 0
0.0349515 0.862288 0
0.0500302 0.864079 0
0.0428263 0.863302 0
0.0518645 0.834525 0
0.0435809 0.834323 0
0.0428263 0.863302 0
0.0349515 0.862288 0
0.0435809 0.834323 0
0.034546 0.833831 0
0.0358383 0.88235 0
0.0283689 0.880612 0
0.0349515 0.862288 0
0.0266149 0.860944 0
0.0283689 0.880612 0
0.0206985 0.878553 0
0.0266149 0.860944 0
0.0180621 0.859212 0
0.0349515 0.862288 0
0.0266149 0.860944 0
0.034546 0.833831 0
0.0249986 0.832946 0
0.0266149 0.860944 0
0.0180621 0.859212 0
0.0249986 0.832946 0
0.0152173 0.831603 0
-0.0151482 0.878084 0
-0.0173586 0.875462 0
-0.0198946 0.86697 0
-0.0221963 0.864196 0
-0.0173586 0.875462 0
-0.0189732 0.873166 0
-0.0221963 0.864196 0
-0.0238432 0.861758 0
-0.0198946 0.86697 0
-0.0221963 0.864196 0
-0.0260117 0.852613 0
-0.0284723 0.849699 0
-0.0221963 0.864196 0
-0.0238432 0.861758 0
-0.0284723 0.849699 0
-0.0302069 0.847136 0
-0.0189732 0.873166 0
-0.0200571 0.87121 0
-0.0238432 0.861758 0
-0.0249156 0.859679 0
-0.0200571 0.87121 0
-0.0206982 0.869599 0
-0.0249156 0.859679 0
-0.0254939 0.857962 0
-0.0238432 0.861758 0
-0.0249156 0.859679 0
-0.0302069 0.847136 0
-0.0312992 0.844955 0
-0.0249156 0.859679 0
-0.0254939 0.857962 0
-0.0312992 0.844955 0
-0.0318394 0.843166 0
-0.0260117 0.852613 0
-0.0284723 0.849699 0
-0.0339922 0.833181 0
-0.036726 0.830114 0
-0.0284723 0.849699 0
-0.0302069 0.847136 0
-0.036726 0.830114 0
-0.0386353 0.827425 0
-0.0339922 0.833181 0
-0.036726 0.830114 0
-0.0445327 0.805369 0
-0.0477241 0.802092 0
-0.036726 0.830114 0
-0.0386353 0.827425 0
-0.0477241 0.802092 0
-0.0499554 0.799231 0
-0.0302069 0.847136 0
-0.0312992 0.844955 0
-0.0386353 0.827425 0
-0.0398109 0.825152 0
-0.0312992 0.844955 0
-0.0318394 0.843166 0
-0.0398109 0.825152 0
-0.0403532 0.823311 0
-0.0386353 0.827425 0
-0.0398109 0.825152 0
-0.0499554 0.799231 0
-0.0513241 0.796834 0
-0.0398109 0.825152 0
-0.0403532 0.823311 0
-0.0513241 0.796834 0
-0.0519412 0.794925 0
-0.0206982 0.869599 0
-0.0209668 0.86832 0
-0.0254939 0.857962 0
-0.0256712 0.856586 0
-0.0209668 0.86832 0
-0.0209481 0.867356 0
-0.0256712 0.856586 0
-0.0255163 0.855545 0
-0.0254939 0.857962 0
-0.0256712 0.856586 0
-0.0318394 0.843166 0
-0.0319349 0.841722 0
-0.0256712 0.856586 0
-0.0255163 0.855545 0
-0.0319349 0.841722 0
-0.0316553 0.840645 0
-0.0209481 0.867356 0
-0.0207059 0.866684 0
-0.0255163 0.855545 0
-0.0251055 0.854812 0
-0.0207059 0.866684 0
-0.0203201 0.866269 0
-0.0251055 0.854812 0
-0.0244991 0.854351 0
-0.0255163 0.855545 0
-0.0251055 0.854812 0
-0.0316553 0.840645 0
-0.0310797 0.839907 0
-0.0251055 0.854812 0
-0.0244991 0.854351 0
-0.0310797 0.839907 0
-0.030279 0.83946 0
-0.0318394 0.843166 0
-0.0319349 0.841722 0
-0.0403532 0.823311 0
-0.0403964 0.821816 0
-0.0319349 0.841722 0
-0.0316553 0.840645 0
-0.0403964 0.821816 0
-0.0400015 0.82073 0
-0.0403532 0.823311 0
-0.0403964 0.821816 0
-0.0519412 0.794925 0
-0.0519825 0.793351 0
-0.0403964 0.821816 0
-0.0400015 0.82073 0
-0.0519825 0.793351 0
-0.0514949 0.792252 0
-0.0316553 0.840645 0
-0.0310797 0.839907 0
-0.0400015 0.82073 0
-0.0392542 0.820021 0
-0.0310797 0.839907 0
-0.030279 0.83946 0
-0.0392542 0.820021 0
-0.0382365 0.819643 0
-0.0400015 0.82073 0
-0.0392542 0.820021 0
-0.0514949 0.792252 0
-0.0505819 0.791603 0
-0.0392542 0.820021 0
-0.0382365 0.819643 0
-0.0505819 0.791603 0
-0.049345 0.791354 0
-0.0203201 0.866269 0
-0.0217006 0.860004 0
-0.0244991 0.854351 0
-0.0260781 0.847647 0
-0.0217006 0.860004 0
-0.0229873 0.85338 0
-0.0260781 0.847647 0
-0.0275245 0.840567 0
-0.0244991 0.854351 0
-0.0260781 0.847647 0
-0.030279 0.83946 0
-0.0320429 0.832131 0
-0.0260781 0.847647 0
-0.0275245 0.840567 0
-0.0320429 0.832131 0
-0.0336311 0.824376 0
-0.0229873 0.85338 0
-0.0241207 0.846428 0
-0.0275245 0.840567 0
-0.0287776 0.833134 0
-0.0241207 0.846428 0
-0.0250435 0.839176 0
-0.0287776 0.833134 0
-0.0297677 0.825386 0
-0.0275245 0.840567 0
-0.0287776 0.833134 0
-0.0336311 0.824376 0
-0.0349709 0.816235 0
-0.0287776 0.833134 0
-0.0297677 0.825386 0
-0.0349709 0.816235 0
-0.0359836 0.807749 0
-0.030279 0.83946 0
-0.0320429 0.832131 0
-0.0382365 0.819643 0
-0.0401711 0.811375 0
-0.0320429 0.832131 0
-0.0336311 0.824376 0
-0.0401711 0.811375 0
-0.0418704 0.802623 0
-0.0382365 0.819643 0
-0.0401711 0.811375 0
-0.049345 0.791354 0
-0.0514302 0.781674 0
-0.0401711 0.811375 0
-0.0418704 0.802623 0
-0.0514302 0.781674 0
-0.0532016 0.771466 0
-0.0336311 0.824376 0
-0.0349709 0.816235 0
-0.0418704 0.802623 0
-0.0432492 0.793443 0
-0.0349709 0.816235 0
-0.0359836 0.807749 0
-0.0432492 0.793443 0
-0.0442204 0.783889 0
-0.0418704 0.802623 0
-0.0432492 0.793443 0
-0.0532016 0.771466 0
-0.0545597 0.760791 0
-0.0432492 0.793443 0
-0.0442204 0.783889 0
-0.0545597 0.760791 0
-0.0554023 0.74972 0
0.0597873 0.934973 0
0.0612508 0.939789 0
0.0626824 0.91404 0
0.0640439 0.919947 0
0.0612508 0.939789 0
0.0624107 0.944214 0
0.0640439 0.919947 0
0.0650691 0.925452 0
0.0626824 0.91404 0
0.0640439 0.919947 0
0.0661287 0.887904 0
0.0673352 0.895051 0
0.0640439 0.919947 0
0.0650691 0.925452 0
0.0673352 0.895051 0
0.0681623 0.901783 0
0.0624107 0.944214 0
0.0633283 0.948227 0
0.0650691 0.925452 0
0.0658257 0.930528 0
0.0633283 0.948227 0
0.0640591 0.951818 0
0.0658257 0.930528 0
0.0663752 0.935159 0
0.0650691 0.925452 0
0.0658257 0.930528 0
0.0681623 0.901783 0
0.0686871 0.908066 0
0.0658257 0.930528 0
0.0663752 0.935159 0
0.0686871 0.908066 0
0.0689821 0.913866 0
0.0661287 0.887904 0
0.0673352 0.895051 0
0.0709171 0.854389 0
0.0719476 0.863004 0
0.0673352 0.895051 0
0.0681623 0.901783 0
0.0719476 0.863004 0
0.0725359 0.871194 0
0.0709171 0.854389 0
0.0719476 0.863004 0
0.0781923 0.809547 0
0.0790638 0.819983 0
0.0719476 0.863004 0
0.0725359 0.871194 0
0.0790638 0.819983 0
0.0793992 0.829984 0
0.0681623 0.901783 0
0.0686871 0.908066 0
0.0725359 0.871194 0
0.0727688 0.878906 0
0.0686871 0.908066 0
0.0689821 0.913866 0
0.0727688 0.878906 0
0.0727307 0.886091 0
0.0725359 0.871194 0
0.0727688 0.878906 0
0.0793992 0.829984 0
0.0793009 0.839482 0
0.0727688 0.878906 0
0.0727307 0.886091 0
0.0793009 0.839482 0
0.0788687 0.848419 0
0.0640591 0.951818 0
0.0658124 0.947337 0
0.0663752 0.935159 0
0.0677926 0.930842 0
0.0658124 0.947337 0
0.0671929 0.942986 0
0.0677926 0.930842 0
0.068898 0.926721 0
0.0663752 0.935159 0
0.0677926 0.930842 0
0.0689821 0.913866 0
0.0702603 0.909818 0
0.0677926 0.930842 0
0.068898 0.926721 0
0.0702603 0.909818 0
0.0712505 0.906024 0
0.0671929 0.942986 0
0.0681656 0.938821 0
0.068898 0.926721 0
0.0696349 0.922847 0
0.0681656 0.938821 0
0.0686667 0.934896 0
0.0696349 0.922847 0
0.0699465 0.91926 0
0.068898 0.926721 0
0.0696349 0.922847 0
0.0712505 0.906024 0
0.0718868 0.902539 0
0.0696349 0.922847 0
0.0699465 0.91926 0
0.0718868 0.902539 0
0.0720959 0.899396 0
0.0689821 0.913866 0
0.0702603 0.909818 0
0.0727307 0.886091 0
0.0740374 0.882407 0
0.0702603 0.909818 0
0.0712505 0.906024 0
0.0740374 0.882407 0
0.0750426 0.87904 0
0.0727307 0.886091 0
0.0740374 0.882407 0
0.0788687 0.848419 0
0.0803006 0.84517 0
0.0740374 0.882407 0
0.0750426 0.87904 0
0.0803006 0.84517 0
0.0813903 0.842321 0
0.0712505 0.906024 0
0.0718868 0.902539 0
0.0750426 0.87904 0
0.075665 0.87604 0
0.0718868 0.902539 0
0.0720959 0.899396 0
0.075665 0.87604 0
0.0758206 0.873439 0
0.0750426 0.87904 0
0.075665 0.87604 0
0.0813903 0.842321 0
0.0820358 0.83992 0
0.075665 0.87604 0
0.0758206 0.873439 0
0.0820358 0.83992 0
0.0821337 0.837995 0
0.0686667 0.934896 0
0.0686597 0.931216 0